V -t * -v 1.0a5 -a 0
W -t * -x 500 -y 500
A -t * -n 1 -p 0 -o 0x7fffffff -c 30 -a 1
A -t * -h 1 -m 1073741823 -s 0
n -t 0.000000 -s 1 -x 441.599691 -y 466.014911 -U 0.000000 -V 0.000000 -T 0.000000
n -t 0.000000 -s 2 -x 312.615981 -y 136.788845 -U 0.000000 -V 0.000000 -T 0.000000
n -t 0.000000 -s 3 -x 10.116119 -y 21.607152 -U 0.000000 -V 0.000000 -T 0.000000
n -t 0.000000 -s 4 -x 151.410878 -y 262.626680 -U 0.000000 -V 0.000000 -T 0.000000
n -t 0.000000 -s 5 -x 466.606331 -y 252.605828 -U 0.000000 -V 0.000000 -T 0.000000
n -t 0.000000 -s 6 -x 46.149107 -y 128.044431 -U 0.000000 -V 0.000000 -T 0.000000
n -t 0.000000 -s 7 -x 42.758376 -y 140.027527 -U 0.000000 -V 0.000000 -T 0.000000
n -t 0.000000 -s 8 -x 442.651279 -y 140.054166 -U 0.000000 -V 0.000000 -T 0.000000
n -t 0.000000 -s 0 -x 0.000000 -y 0.000000 -U 0.000000 -V 0.000000 -T 0.000000
n -t 0.000000 -s 9 -x 300.000000 -y 450.000000 -U 0.000000 -V -0.000000 -T 0.000000
+ -t 0.036772557 -s 1 -d -1 -p message -e 32 -c 2 -a 0 -i 0 -k RTR 
- -t 0.036772557 -s 1 -d -1 -p message -e 32 -c 2 -a 0 -i 0 -k RTR
h -t 0.036772557 -s 1 -d -1 -p message -e 32 -c 2 -a 0 -i 0 -k RTR
r -t 0.038133032 -s 9 -d -1 -p message -e 32 -c 2 -a 0 -i 0 -k RTR
r -t 0.038133273 -s 5 -d -1 -p message -e 32 -c 2 -a 0 -i 0 -k RTR
+ -t 0.177383425 -s 2 -d -1 -p message -e 32 -c 2 -a 0 -i 1 -k RTR 
- -t 0.177383425 -s 2 -d -1 -p message -e 32 -c 2 -a 0 -i 1 -k RTR
h -t 0.177383425 -s 2 -d -1 -p message -e 32 -c 2 -a 0 -i 1 -k RTR
r -t 0.178363859 -s 8 -d -1 -p message -e 32 -c 2 -a 0 -i 1 -k RTR
r -t 0.178364067 -s 5 -d -1 -p message -e 32 -c 2 -a 0 -i 1 -k RTR
r -t 0.178364107 -s 4 -d -1 -p message -e 32 -c 2 -a 0 -i 1 -k RTR
+ -t 0.470144892 -s 7 -d -1 -p message -e 32 -c 2 -a 0 -i 2 -k RTR 
- -t 0.470144892 -s 7 -d -1 -p message -e 32 -c 2 -a 0 -i 2 -k RTR
h -t 0.470144892 -s 7 -d -1 -p message -e 32 -c 2 -a 0 -i 2 -k RTR
r -t 0.471164934 -s 6 -d -1 -p message -e 32 -c 2 -a 0 -i 2 -k RTR
r -t 0.471165302 -s 3 -d -1 -p message -e 32 -c 2 -a 0 -i 2 -k RTR
r -t 0.471165380 -s 0 -d -1 -p message -e 32 -c 2 -a 0 -i 2 -k RTR
r -t 0.471165438 -s 4 -d -1 -p message -e 32 -c 2 -a 0 -i 2 -k RTR
+ -t 0.622244972 -s 9 -d -1 -p message -e 32 -c 2 -a 0 -i 3 -k RTR 
- -t 0.622244972 -s 9 -d -1 -p message -e 32 -c 2 -a 0 -i 3 -k RTR
h -t 0.622244972 -s 9 -d -1 -p message -e 32 -c 2 -a 0 -i 3 -k RTR
r -t 0.623505447 -s 1 -d -1 -p message -e 32 -c 2 -a 0 -i 3 -k RTR
r -t 0.623505770 -s 4 -d -1 -p message -e 32 -c 2 -a 0 -i 3 -k RTR
+ -t 0.634544216 -s 5 -d -1 -p message -e 32 -c 2 -a 0 -i 4 -k RTR 
- -t 0.634544216 -s 5 -d -1 -p message -e 32 -c 2 -a 0 -i 4 -k RTR
h -t 0.634544216 -s 5 -d -1 -p message -e 32 -c 2 -a 0 -i 4 -k RTR
r -t 0.635904600 -s 8 -d -1 -p message -e 32 -c 2 -a 0 -i 4 -k RTR
r -t 0.635904858 -s 2 -d -1 -p message -e 32 -c 2 -a 0 -i 4 -k RTR
r -t 0.635904932 -s 1 -d -1 -p message -e 32 -c 2 -a 0 -i 4 -k RTR
+ -t 0.890857830 -s 3 -d -1 -p message -e 32 -c 2 -a 0 -i 5 -k RTR 
- -t 0.890857830 -s 3 -d -1 -p message -e 32 -c 2 -a 0 -i 5 -k RTR
h -t 0.890857830 -s 3 -d -1 -p message -e 32 -c 2 -a 0 -i 5 -k RTR
r -t 0.892037909 -s 0 -d -1 -p message -e 32 -c 2 -a 0 -i 5 -k RTR
r -t 0.892038204 -s 6 -d -1 -p message -e 32 -c 2 -a 0 -i 5 -k RTR
r -t 0.892038239 -s 7 -d -1 -p message -e 32 -c 2 -a 0 -i 5 -k RTR
+ -t 1.000000000 -s 0 -d -1 -p tcp -e 40 -c 2 -a 0 -i 6 -k AGT 
- -t 1.000000000 -s 0 -d -1 -p tcp -e 40 -c 2 -a 0 -i 6 -k AGT
h -t 1.000000000 -s 0 -d -1 -p tcp -e 40 -c 2 -a 0 -i 6 -k AGT
+ -t 1.115816623 -s 0 -d -1 -p message -e 32 -c 2 -a 0 -i 7 -k RTR 
- -t 1.115816623 -s 0 -d -1 -p message -e 32 -c 2 -a 0 -i 7 -k RTR
h -t 1.115816623 -s 0 -d -1 -p message -e 32 -c 2 -a 0 -i 7 -k RTR
r -t 1.116836702 -s 3 -d -1 -p message -e 32 -c 2 -a 0 -i 7 -k RTR
r -t 1.116837076 -s 6 -d -1 -p message -e 32 -c 2 -a 0 -i 7 -k RTR
r -t 1.116837111 -s 7 -d -1 -p message -e 32 -c 2 -a 0 -i 7 -k RTR
+ -t 1.286604722 -s 8 -d -1 -p message -e 32 -c 2 -a 0 -i 8 -k RTR 
- -t 1.286604722 -s 8 -d -1 -p message -e 32 -c 2 -a 0 -i 8 -k RTR
h -t 1.286604722 -s 8 -d -1 -p message -e 32 -c 2 -a 0 -i 8 -k RTR
r -t 1.287625106 -s 5 -d -1 -p message -e 32 -c 2 -a 0 -i 8 -k RTR
r -t 1.287625156 -s 2 -d -1 -p message -e 32 -c 2 -a 0 -i 8 -k RTR
+ -t 1.598894933 -s 4 -d -1 -p message -e 32 -c 2 -a 0 -i 9 -k RTR 
- -t 1.598894933 -s 4 -d -1 -p message -e 32 -c 2 -a 0 -i 9 -k RTR
h -t 1.598894933 -s 4 -d -1 -p message -e 32 -c 2 -a 0 -i 9 -k RTR
r -t 1.600055479 -s 7 -d -1 -p message -e 32 -c 2 -a 0 -i 9 -k RTR
r -t 1.600055503 -s 6 -d -1 -p message -e 32 -c 2 -a 0 -i 9 -k RTR
r -t 1.600055615 -s 2 -d -1 -p message -e 32 -c 2 -a 0 -i 9 -k RTR
r -t 1.600055730 -s 9 -d -1 -p message -e 32 -c 2 -a 0 -i 9 -k RTR
+ -t 1.634183138 -s 6 -d -1 -p message -e 32 -c 2 -a 0 -i 10 -k RTR 
- -t 1.634183138 -s 6 -d -1 -p message -e 32 -c 2 -a 0 -i 10 -k RTR
h -t 1.634183138 -s 6 -d -1 -p message -e 32 -c 2 -a 0 -i 10 -k RTR
r -t 1.635283179 -s 7 -d -1 -p message -e 32 -c 2 -a 0 -i 10 -k RTR
r -t 1.635283512 -s 3 -d -1 -p message -e 32 -c 2 -a 0 -i 10 -k RTR
r -t 1.635283591 -s 0 -d -1 -p message -e 32 -c 2 -a 0 -i 10 -k RTR
r -t 1.635283707 -s 4 -d -1 -p message -e 32 -c 2 -a 0 -i 10 -k RTR
+ -t 4.000000000 -s 0 -d -1 -p tcp -e 40 -c 2 -a 0 -i 11 -k AGT 
- -t 4.000000000 -s 0 -d -1 -p tcp -e 40 -c 2 -a 0 -i 11 -k AGT
h -t 4.000000000 -s 0 -d -1 -p tcp -e 40 -c 2 -a 0 -i 11 -k AGT
+ -t 10.000000000 -s 0 -d -1 -p tcp -e 40 -c 2 -a 0 -i 12 -k AGT 
- -t 10.000000000 -s 0 -d -1 -p tcp -e 40 -c 2 -a 0 -i 12 -k AGT
h -t 10.000000000 -s 0 -d -1 -p tcp -e 40 -c 2 -a 0 -i 12 -k AGT
+ -t 11.899402816 -s 1 -d -1 -p message -e 32 -c 2 -a 0 -i 13 -k RTR 
- -t 11.899402816 -s 1 -d -1 -p message -e 32 -c 2 -a 0 -i 13 -k RTR
h -t 11.899402816 -s 1 -d -1 -p message -e 32 -c 2 -a 0 -i 13 -k RTR
r -t 11.900543291 -s 9 -d -1 -p message -e 32 -c 2 -a 0 -i 13 -k RTR
r -t 11.900543532 -s 5 -d -1 -p message -e 32 -c 2 -a 0 -i 13 -k RTR
+ -t 12.178639642 -s 5 -d -1 -p message -e 32 -c 2 -a 0 -i 17 -k RTR 
- -t 12.178639642 -s 5 -d -1 -p message -e 32 -c 2 -a 0 -i 17 -k RTR
h -t 12.178639642 -s 5 -d -1 -p message -e 32 -c 2 -a 0 -i 17 -k RTR
r -t 12.179460026 -s 8 -d -1 -p message -e 32 -c 2 -a 0 -i 17 -k RTR
r -t 12.179460284 -s 2 -d -1 -p message -e 32 -c 2 -a 0 -i 17 -k RTR
r -t 12.179460358 -s 1 -d -1 -p message -e 32 -c 2 -a 0 -i 17 -k RTR
+ -t 12.181637277 -s 4 -d -1 -p message -e 32 -c 2 -a 0 -i 18 -k RTR 
- -t 12.181637277 -s 4 -d -1 -p message -e 32 -c 2 -a 0 -i 18 -k RTR
h -t 12.181637277 -s 4 -d -1 -p message -e 32 -c 2 -a 0 -i 18 -k RTR
+ -t 12.182620731 -s 8 -d -1 -p message -e 32 -c 2 -a 0 -i 16 -k RTR 
- -t 12.182620731 -s 8 -d -1 -p message -e 32 -c 2 -a 0 -i 16 -k RTR
h -t 12.182620731 -s 8 -d -1 -p message -e 32 -c 2 -a 0 -i 16 -k RTR
r -t 12.182757823 -s 7 -d -1 -p message -e 32 -c 2 -a 0 -i 18 -k RTR
r -t 12.182757846 -s 6 -d -1 -p message -e 32 -c 2 -a 0 -i 18 -k RTR
r -t 12.182757958 -s 2 -d -1 -p message -e 32 -c 2 -a 0 -i 18 -k RTR
r -t 12.182758074 -s 9 -d -1 -p message -e 32 -c 2 -a 0 -i 18 -k RTR
r -t 12.184172714 -s 5 -d -1 -p message -e 32 -c 2 -a 0 -i 16 -k RTR
r -t 12.184172764 -s 2 -d -1 -p message -e 32 -c 2 -a 0 -i 16 -k RTR
+ -t 12.472078949 -s 0 -d -1 -p message -e 32 -c 2 -a 0 -i 21 -k RTR 
- -t 12.472078949 -s 0 -d -1 -p message -e 32 -c 2 -a 0 -i 21 -k RTR
h -t 12.472078949 -s 0 -d -1 -p message -e 32 -c 2 -a 0 -i 21 -k RTR
r -t 12.472939029 -s 3 -d -1 -p message -e 32 -c 2 -a 0 -i 21 -k RTR
r -t 12.472939403 -s 6 -d -1 -p message -e 32 -c 2 -a 0 -i 21 -k RTR
r -t 12.472939437 -s 7 -d -1 -p message -e 32 -c 2 -a 0 -i 21 -k RTR
+ -t 12.472952212 -s 6 -d -1 -p message -e 32 -c 2 -a 0 -i 19 -k RTR 
- -t 12.472952212 -s 6 -d -1 -p message -e 32 -c 2 -a 0 -i 19 -k RTR
h -t 12.472952212 -s 6 -d -1 -p message -e 32 -c 2 -a 0 -i 19 -k RTR
r -t 12.473892254 -s 7 -d -1 -p message -e 32 -c 2 -a 0 -i 19 -k RTR
r -t 12.473892587 -s 3 -d -1 -p message -e 32 -c 2 -a 0 -i 19 -k RTR
r -t 12.473892666 -s 0 -d -1 -p message -e 32 -c 2 -a 0 -i 19 -k RTR
r -t 12.473892782 -s 4 -d -1 -p message -e 32 -c 2 -a 0 -i 19 -k RTR
+ -t 12.480925369 -s 3 -d -1 -p message -e 32 -c 2 -a 0 -i 20 -k RTR 
- -t 12.480925369 -s 3 -d -1 -p message -e 32 -c 2 -a 0 -i 20 -k RTR
h -t 12.480925369 -s 3 -d -1 -p message -e 32 -c 2 -a 0 -i 20 -k RTR
r -t 12.481845448 -s 0 -d -1 -p message -e 32 -c 2 -a 0 -i 20 -k RTR
r -t 12.481845743 -s 6 -d -1 -p message -e 32 -c 2 -a 0 -i 20 -k RTR
r -t 12.481845778 -s 7 -d -1 -p message -e 32 -c 2 -a 0 -i 20 -k RTR
+ -t 12.636786860 -s 2 -d -1 -p message -e 32 -c 2 -a 0 -i 22 -k RTR 
- -t 12.636786860 -s 2 -d -1 -p message -e 32 -c 2 -a 0 -i 22 -k RTR
h -t 12.636786860 -s 2 -d -1 -p message -e 32 -c 2 -a 0 -i 22 -k RTR
r -t 12.637807293 -s 8 -d -1 -p message -e 32 -c 2 -a 0 -i 22 -k RTR
r -t 12.637807502 -s 5 -d -1 -p message -e 32 -c 2 -a 0 -i 22 -k RTR
r -t 12.637807542 -s 4 -d -1 -p message -e 32 -c 2 -a 0 -i 22 -k RTR
+ -t 12.778536119 -s 0 -d -1 -p message -e 44 -c 2 -a 0 -i 23 -k RTR 
- -t 12.778536119 -s 0 -d -1 -p message -e 44 -c 2 -a 0 -i 23 -k RTR
h -t 12.778536119 -s 0 -d -1 -p message -e 44 -c 2 -a 0 -i 23 -k RTR
r -t 12.779572199 -s 3 -d -1 -p message -e 44 -c 2 -a 0 -i 23 -k RTR
r -t 12.779572573 -s 6 -d -1 -p message -e 44 -c 2 -a 0 -i 23 -k RTR
r -t 12.779572607 -s 7 -d -1 -p message -e 44 -c 2 -a 0 -i 23 -k RTR
+ -t 12.896862294 -s 4 -d -1 -p message -e 68 -c 2 -a 0 -i 24 -k RTR 
- -t 12.896862294 -s 4 -d -1 -p message -e 68 -c 2 -a 0 -i 24 -k RTR
h -t 12.896862294 -s 4 -d -1 -p message -e 68 -c 2 -a 0 -i 24 -k RTR
+ -t 12.897622325 -s 7 -d -1 -p message -e 32 -c 2 -a 0 -i 25 -k RTR 
- -t 12.897622325 -s 7 -d -1 -p message -e 32 -c 2 -a 0 -i 25 -k RTR
h -t 12.897622325 -s 7 -d -1 -p message -e 32 -c 2 -a 0 -i 25 -k RTR
r -t 12.898510840 -s 7 -d -1 -p message -e 68 -c 2 -a 0 -i 24 -k RTR
r -t 12.898510864 -s 6 -d -1 -p message -e 68 -c 2 -a 0 -i 24 -k RTR
r -t 12.898510976 -s 2 -d -1 -p message -e 68 -c 2 -a 0 -i 24 -k RTR
r -t 12.898511091 -s 9 -d -1 -p message -e 68 -c 2 -a 0 -i 24 -k RTR
r -t 12.899580882 -s 6 -d -1 -p message -e 32 -c 2 -a 0 -i 25 -k RTR
r -t 12.899581250 -s 3 -d -1 -p message -e 32 -c 2 -a 0 -i 25 -k RTR
r -t 12.899581328 -s 0 -d -1 -p message -e 32 -c 2 -a 0 -i 25 -k RTR
r -t 12.899581386 -s 4 -d -1 -p message -e 32 -c 2 -a 0 -i 25 -k RTR
+ -t 12.902110419 -s 1 -d -1 -p message -e 44 -c 2 -a 0 -i 26 -k RTR 
- -t 12.902110419 -s 1 -d -1 -p message -e 44 -c 2 -a 0 -i 26 -k RTR
h -t 12.902110419 -s 1 -d -1 -p message -e 44 -c 2 -a 0 -i 26 -k RTR
r -t 12.903366894 -s 9 -d -1 -p message -e 44 -c 2 -a 0 -i 26 -k RTR
r -t 12.903367136 -s 5 -d -1 -p message -e 44 -c 2 -a 0 -i 26 -k RTR
+ -t 13.178365604 -s 8 -d -1 -p message -e 44 -c 2 -a 0 -i 27 -k RTR 
- -t 13.178365604 -s 8 -d -1 -p message -e 44 -c 2 -a 0 -i 27 -k RTR
h -t 13.178365604 -s 8 -d -1 -p message -e 44 -c 2 -a 0 -i 27 -k RTR
r -t 13.179501988 -s 5 -d -1 -p message -e 44 -c 2 -a 0 -i 27 -k RTR
r -t 13.179502038 -s 2 -d -1 -p message -e 44 -c 2 -a 0 -i 27 -k RTR
+ -t 13.294582004 -s 5 -d -1 -p message -e 44 -c 2 -a 0 -i 28 -k RTR 
- -t 13.294582004 -s 5 -d -1 -p message -e 44 -c 2 -a 0 -i 28 -k RTR
h -t 13.294582004 -s 5 -d -1 -p message -e 44 -c 2 -a 0 -i 28 -k RTR
r -t 13.295938387 -s 8 -d -1 -p message -e 44 -c 2 -a 0 -i 28 -k RTR
r -t 13.295938646 -s 2 -d -1 -p message -e 44 -c 2 -a 0 -i 28 -k RTR
r -t 13.295938720 -s 1 -d -1 -p message -e 44 -c 2 -a 0 -i 28 -k RTR
+ -t 13.474215191 -s 3 -d -1 -p message -e 32 -c 2 -a 0 -i 30 -k RTR 
- -t 13.474215191 -s 3 -d -1 -p message -e 32 -c 2 -a 0 -i 30 -k RTR
h -t 13.474215191 -s 3 -d -1 -p message -e 32 -c 2 -a 0 -i 30 -k RTR
+ -t 13.474817407 -s 6 -d -1 -p message -e 44 -c 2 -a 0 -i 29 -k RTR 
- -t 13.474817407 -s 6 -d -1 -p message -e 44 -c 2 -a 0 -i 29 -k RTR
h -t 13.474817407 -s 6 -d -1 -p message -e 44 -c 2 -a 0 -i 29 -k RTR
r -t 13.475255271 -s 0 -d -1 -p message -e 32 -c 2 -a 0 -i 30 -k RTR
r -t 13.475255566 -s 6 -d -1 -p message -e 32 -c 2 -a 0 -i 30 -k RTR
r -t 13.475255601 -s 7 -d -1 -p message -e 32 -c 2 -a 0 -i 30 -k RTR
r -t 13.476121608 -s 7 -d -1 -p message -e 44 -c 2 -a 0 -i 29 -k RTR
r -t 13.476121941 -s 3 -d -1 -p message -e 44 -c 2 -a 0 -i 29 -k RTR
r -t 13.476122020 -s 0 -d -1 -p message -e 44 -c 2 -a 0 -i 29 -k RTR
r -t 13.476122136 -s 4 -d -1 -p message -e 44 -c 2 -a 0 -i 29 -k RTR
+ -t 13.643963177 -s 2 -d -1 -p message -e 44 -c 2 -a 0 -i 32 -k RTR 
- -t 13.643963177 -s 2 -d -1 -p message -e 44 -c 2 -a 0 -i 32 -k RTR
h -t 13.643963177 -s 2 -d -1 -p message -e 44 -c 2 -a 0 -i 32 -k RTR
r -t 13.645299610 -s 8 -d -1 -p message -e 44 -c 2 -a 0 -i 32 -k RTR
r -t 13.645299819 -s 5 -d -1 -p message -e 44 -c 2 -a 0 -i 32 -k RTR
r -t 13.645299858 -s 4 -d -1 -p message -e 44 -c 2 -a 0 -i 32 -k RTR
+ -t 13.778808056 -s 0 -d -1 -p message -e 44 -c 2 -a 0 -i 33 -k RTR 
- -t 13.778808056 -s 0 -d -1 -p message -e 44 -c 2 -a 0 -i 33 -k RTR
h -t 13.778808056 -s 0 -d -1 -p message -e 44 -c 2 -a 0 -i 33 -k RTR
r -t 13.779884136 -s 3 -d -1 -p message -e 44 -c 2 -a 0 -i 33 -k RTR
r -t 13.779884510 -s 6 -d -1 -p message -e 44 -c 2 -a 0 -i 33 -k RTR
r -t 13.779884544 -s 7 -d -1 -p message -e 44 -c 2 -a 0 -i 33 -k RTR
+ -t 13.818298565 -s 9 -d -1 -p message -e 32 -c 2 -a 0 -i 34 -k RTR 
- -t 13.818298565 -s 9 -d -1 -p message -e 32 -c 2 -a 0 -i 34 -k RTR
h -t 13.818298565 -s 9 -d -1 -p message -e 32 -c 2 -a 0 -i 34 -k RTR
r -t 13.819119040 -s 1 -d -1 -p message -e 32 -c 2 -a 0 -i 34 -k RTR
r -t 13.819119362 -s 4 -d -1 -p message -e 32 -c 2 -a 0 -i 34 -k RTR
+ -t 13.893241319 -s 4 -d -1 -p message -e 32 -c 2 -a 0 -i 35 -k RTR 
- -t 13.893241319 -s 4 -d -1 -p message -e 32 -c 2 -a 0 -i 35 -k RTR
h -t 13.893241319 -s 4 -d -1 -p message -e 32 -c 2 -a 0 -i 35 -k RTR
r -t 13.894481866 -s 7 -d -1 -p message -e 32 -c 2 -a 0 -i 35 -k RTR
r -t 13.894481889 -s 6 -d -1 -p message -e 32 -c 2 -a 0 -i 35 -k RTR
r -t 13.894482001 -s 2 -d -1 -p message -e 32 -c 2 -a 0 -i 35 -k RTR
r -t 13.894482117 -s 9 -d -1 -p message -e 32 -c 2 -a 0 -i 35 -k RTR
+ -t 13.896410461 -s 7 -d -1 -p message -e 44 -c 2 -a 0 -i 36 -k RTR 
- -t 13.896410461 -s 7 -d -1 -p message -e 44 -c 2 -a 0 -i 36 -k RTR
h -t 13.896410461 -s 7 -d -1 -p message -e 44 -c 2 -a 0 -i 36 -k RTR
r -t 13.897346502 -s 6 -d -1 -p message -e 44 -c 2 -a 0 -i 36 -k RTR
r -t 13.897346870 -s 3 -d -1 -p message -e 44 -c 2 -a 0 -i 36 -k RTR
r -t 13.897346949 -s 0 -d -1 -p message -e 44 -c 2 -a 0 -i 36 -k RTR
r -t 13.897347007 -s 4 -d -1 -p message -e 44 -c 2 -a 0 -i 36 -k RTR
+ -t 14.475394626 -s 3 -d -1 -p message -e 44 -c 2 -a 0 -i 38 -k RTR 
- -t 14.475394626 -s 3 -d -1 -p message -e 44 -c 2 -a 0 -i 38 -k RTR
h -t 14.475394626 -s 3 -d -1 -p message -e 44 -c 2 -a 0 -i 38 -k RTR
+ -t 14.475468982 -s 6 -d -1 -p message -e 44 -c 2 -a 0 -i 37 -k RTR 
- -t 14.475468982 -s 6 -d -1 -p message -e 44 -c 2 -a 0 -i 37 -k RTR
h -t 14.475468982 -s 6 -d -1 -p message -e 44 -c 2 -a 0 -i 37 -k RTR
r -t 14.476330705 -s 0 -d -1 -p message -e 44 -c 2 -a 0 -i 38 -k RTR
r -t 14.476331000 -s 6 -d -1 -p message -e 44 -c 2 -a 0 -i 38 -k RTR
r -t 14.476331035 -s 7 -d -1 -p message -e 44 -c 2 -a 0 -i 38 -k RTR
r -t 14.477577042 -s 7 -d -1 -p message -e 44 -c 2 -a 0 -i 37 -k RTR
r -t 14.477577375 -s 3 -d -1 -p message -e 44 -c 2 -a 0 -i 37 -k RTR
r -t 14.477577454 -s 0 -d -1 -p message -e 44 -c 2 -a 0 -i 37 -k RTR
r -t 14.477577570 -s 4 -d -1 -p message -e 44 -c 2 -a 0 -i 37 -k RTR
+ -t 14.656453107 -s 2 -d -1 -p message -e 56 -c 2 -a 0 -i 39 -k RTR 
- -t 14.656453107 -s 2 -d -1 -p message -e 56 -c 2 -a 0 -i 39 -k RTR
h -t 14.656453107 -s 2 -d -1 -p message -e 56 -c 2 -a 0 -i 39 -k RTR
r -t 14.657645540 -s 8 -d -1 -p message -e 56 -c 2 -a 0 -i 39 -k RTR
r -t 14.657645749 -s 5 -d -1 -p message -e 56 -c 2 -a 0 -i 39 -k RTR
r -t 14.657645788 -s 4 -d -1 -p message -e 56 -c 2 -a 0 -i 39 -k RTR
+ -t 14.673050191 -s 3 -d -1 -p message -e 56 -c 2 -a 0 -i 40 -k RTR 
- -t 14.673050191 -s 3 -d -1 -p message -e 56 -c 2 -a 0 -i 40 -k RTR
h -t 14.673050191 -s 3 -d -1 -p message -e 56 -c 2 -a 0 -i 40 -k RTR
r -t 14.674302271 -s 0 -d -1 -p message -e 56 -c 2 -a 0 -i 40 -k RTR
r -t 14.674302566 -s 6 -d -1 -p message -e 56 -c 2 -a 0 -i 40 -k RTR
r -t 14.674302601 -s 7 -d -1 -p message -e 56 -c 2 -a 0 -i 40 -k RTR
+ -t 14.751345592 -s 7 -d -1 -p message -e 44 -c 2 -a 0 -i 41 -k RTR 
- -t 14.751345592 -s 7 -d -1 -p message -e 44 -c 2 -a 0 -i 41 -k RTR
h -t 14.751345592 -s 7 -d -1 -p message -e 44 -c 2 -a 0 -i 41 -k RTR
r -t 14.752801634 -s 6 -d -1 -p message -e 44 -c 2 -a 0 -i 41 -k RTR
r -t 14.752802002 -s 3 -d -1 -p message -e 44 -c 2 -a 0 -i 41 -k RTR
r -t 14.752802080 -s 0 -d -1 -p message -e 44 -c 2 -a 0 -i 41 -k RTR
r -t 14.752802138 -s 4 -d -1 -p message -e 44 -c 2 -a 0 -i 41 -k RTR
+ -t 15.025855033 -s 5 -d -1 -p message -e 44 -c 2 -a 0 -i 42 -k RTR 
- -t 15.025855033 -s 5 -d -1 -p message -e 44 -c 2 -a 0 -i 42 -k RTR
h -t 15.025855033 -s 5 -d -1 -p message -e 44 -c 2 -a 0 -i 42 -k RTR
r -t 15.026991417 -s 8 -d -1 -p message -e 44 -c 2 -a 0 -i 42 -k RTR
r -t 15.026991675 -s 2 -d -1 -p message -e 44 -c 2 -a 0 -i 42 -k RTR
r -t 15.026991749 -s 1 -d -1 -p message -e 44 -c 2 -a 0 -i 42 -k RTR
+ -t 15.394625805 -s 6 -d -1 -p message -e 32 -c 2 -a 0 -i 43 -k RTR 
- -t 15.394625805 -s 6 -d -1 -p message -e 32 -c 2 -a 0 -i 43 -k RTR
h -t 15.394625805 -s 6 -d -1 -p message -e 32 -c 2 -a 0 -i 43 -k RTR
r -t 15.395965846 -s 7 -d -1 -p message -e 32 -c 2 -a 0 -i 43 -k RTR
r -t 15.395966179 -s 3 -d -1 -p message -e 32 -c 2 -a 0 -i 43 -k RTR
r -t 15.395966259 -s 0 -d -1 -p message -e 32 -c 2 -a 0 -i 43 -k RTR
r -t 15.395966374 -s 4 -d -1 -p message -e 32 -c 2 -a 0 -i 43 -k RTR
+ -t 16.080823599 -s 8 -d -1 -p message -e 32 -c 2 -a 0 -i 44 -k RTR 
- -t 16.080823599 -s 8 -d -1 -p message -e 32 -c 2 -a 0 -i 44 -k RTR
h -t 16.080823599 -s 8 -d -1 -p message -e 32 -c 2 -a 0 -i 44 -k RTR
r -t 16.082023982 -s 5 -d -1 -p message -e 32 -c 2 -a 0 -i 44 -k RTR
r -t 16.082024032 -s 2 -d -1 -p message -e 32 -c 2 -a 0 -i 44 -k RTR
+ -t 22.000000000 -s 0 -d -1 -p tcp -e 40 -c 2 -a 0 -i 45 -k AGT 
- -t 22.000000000 -s 0 -d -1 -p tcp -e 40 -c 2 -a 0 -i 45 -k AGT
h -t 22.000000000 -s 0 -d -1 -p tcp -e 40 -c 2 -a 0 -i 45 -k AGT
+ -t 24.180978297 -s 1 -d -1 -p message -e 32 -c 2 -a 0 -i 46 -k RTR 
- -t 24.180978297 -s 1 -d -1 -p message -e 32 -c 2 -a 0 -i 46 -k RTR
h -t 24.180978297 -s 1 -d -1 -p message -e 32 -c 2 -a 0 -i 46 -k RTR
r -t 24.181798772 -s 9 -d -1 -p message -e 32 -c 2 -a 0 -i 46 -k RTR
r -t 24.181799013 -s 5 -d -1 -p message -e 32 -c 2 -a 0 -i 46 -k RTR
+ -t 24.183422697 -s 6 -d -1 -p message -e 56 -c 2 -a 0 -i 48 -k RTR 
- -t 24.183422697 -s 6 -d -1 -p message -e 56 -c 2 -a 0 -i 48 -k RTR
h -t 24.183422697 -s 6 -d -1 -p message -e 56 -c 2 -a 0 -i 48 -k RTR
r -t 24.185034738 -s 7 -d -1 -p message -e 56 -c 2 -a 0 -i 48 -k RTR
r -t 24.185035071 -s 3 -d -1 -p message -e 56 -c 2 -a 0 -i 48 -k RTR
r -t 24.185035151 -s 0 -d -1 -p message -e 56 -c 2 -a 0 -i 48 -k RTR
r -t 24.185035266 -s 4 -d -1 -p message -e 56 -c 2 -a 0 -i 48 -k RTR
+ -t 24.188111349 -s 7 -d -1 -p message -e 56 -c 2 -a 0 -i 47 -k RTR 
- -t 24.188111349 -s 7 -d -1 -p message -e 56 -c 2 -a 0 -i 47 -k RTR
h -t 24.188111349 -s 7 -d -1 -p message -e 56 -c 2 -a 0 -i 47 -k RTR
r -t 24.189663390 -s 6 -d -1 -p message -e 56 -c 2 -a 0 -i 47 -k RTR
r -t 24.189663758 -s 3 -d -1 -p message -e 56 -c 2 -a 0 -i 47 -k RTR
r -t 24.189663837 -s 0 -d -1 -p message -e 56 -c 2 -a 0 -i 47 -k RTR
r -t 24.189663895 -s 4 -d -1 -p message -e 56 -c 2 -a 0 -i 47 -k RTR
+ -t 24.192476380 -s 9 -d -1 -p message -e 56 -c 2 -a 0 -i 49 -k RTR 
- -t 24.192476380 -s 9 -d -1 -p message -e 56 -c 2 -a 0 -i 49 -k RTR
h -t 24.192476380 -s 9 -d -1 -p message -e 56 -c 2 -a 0 -i 49 -k RTR
r -t 24.193528855 -s 1 -d -1 -p message -e 56 -c 2 -a 0 -i 49 -k RTR
r -t 24.193529177 -s 4 -d -1 -p message -e 56 -c 2 -a 0 -i 49 -k RTR
+ -t 24.639866366 -s 4 -d -1 -p message -e 44 -c 2 -a 0 -i 50 -k RTR 
- -t 24.639866366 -s 4 -d -1 -p message -e 44 -c 2 -a 0 -i 50 -k RTR
h -t 24.639866366 -s 4 -d -1 -p message -e 44 -c 2 -a 0 -i 50 -k RTR
r -t 24.640782912 -s 7 -d -1 -p message -e 44 -c 2 -a 0 -i 50 -k RTR
r -t 24.640782936 -s 6 -d -1 -p message -e 44 -c 2 -a 0 -i 50 -k RTR
r -t 24.640783048 -s 2 -d -1 -p message -e 44 -c 2 -a 0 -i 50 -k RTR
r -t 24.640783164 -s 9 -d -1 -p message -e 44 -c 2 -a 0 -i 50 -k RTR
+ -t 24.900129535 -s 2 -d -1 -p message -e 44 -c 2 -a 0 -i 51 -k RTR 
- -t 24.900129535 -s 2 -d -1 -p message -e 44 -c 2 -a 0 -i 51 -k RTR
h -t 24.900129535 -s 2 -d -1 -p message -e 44 -c 2 -a 0 -i 51 -k RTR
r -t 24.901345968 -s 8 -d -1 -p message -e 44 -c 2 -a 0 -i 51 -k RTR
r -t 24.901346177 -s 5 -d -1 -p message -e 44 -c 2 -a 0 -i 51 -k RTR
r -t 24.901346217 -s 4 -d -1 -p message -e 44 -c 2 -a 0 -i 51 -k RTR
+ -t 24.909484417 -s 5 -d -1 -p message -e 44 -c 2 -a 0 -i 52 -k RTR 
- -t 24.909484417 -s 5 -d -1 -p message -e 44 -c 2 -a 0 -i 52 -k RTR
h -t 24.909484417 -s 5 -d -1 -p message -e 44 -c 2 -a 0 -i 52 -k RTR
r -t 24.910880801 -s 8 -d -1 -p message -e 44 -c 2 -a 0 -i 52 -k RTR
r -t 24.910881060 -s 2 -d -1 -p message -e 44 -c 2 -a 0 -i 52 -k RTR
r -t 24.910881134 -s 1 -d -1 -p message -e 44 -c 2 -a 0 -i 52 -k RTR
+ -t 25.183173576 -s 6 -d -1 -p message -e 80 -c 2 -a 0 -i 54 -k RTR 
- -t 25.183173576 -s 6 -d -1 -p message -e 80 -c 2 -a 0 -i 54 -k RTR
h -t 25.183173576 -s 6 -d -1 -p message -e 80 -c 2 -a 0 -i 54 -k RTR
+ -t 25.183952232 -s 9 -d -1 -p message -e 92 -c 2 -a 0 -i 55 -k RTR 
- -t 25.183952232 -s 9 -d -1 -p message -e 92 -c 2 -a 0 -i 55 -k RTR
h -t 25.183952232 -s 9 -d -1 -p message -e 92 -c 2 -a 0 -i 55 -k RTR
+ -t 25.184422318 -s 7 -d -1 -p message -e 80 -c 2 -a 0 -i 53 -k RTR 
- -t 25.184422318 -s 7 -d -1 -p message -e 80 -c 2 -a 0 -i 53 -k RTR
h -t 25.184422318 -s 7 -d -1 -p message -e 80 -c 2 -a 0 -i 53 -k RTR
r -t 25.184697618 -s 7 -d -1 -p message -e 80 -c 2 -a 0 -i 54 -k RTR
r -t 25.184697951 -s 3 -d -1 -p message -e 80 -c 2 -a 0 -i 54 -k RTR
r -t 25.184698030 -s 0 -d -1 -p message -e 80 -c 2 -a 0 -i 54 -k RTR
r -t 25.184698146 -s 4 -d -1 -p message -e 80 -c 2 -a 0 -i 54 -k RTR
r -t 25.185911659 -s 6 -d -1 -p message -e 80 -c 2 -a 0 -i 53 -k RTR
r -t 25.185912027 -s 3 -d -1 -p message -e 80 -c 2 -a 0 -i 53 -k RTR
r -t 25.185912106 -s 0 -d -1 -p message -e 80 -c 2 -a 0 -i 53 -k RTR
r -t 25.185912164 -s 4 -d -1 -p message -e 80 -c 2 -a 0 -i 53 -k RTR
r -t 25.187907436 -s 1 -d -1 -p message -e 92 -c 2 -a 0 -i 55 -k RTR
r -t 25.187907758 -s 4 -d -1 -p message -e 92 -c 2 -a 0 -i 55 -k RTR
+ -t 25.303022241 -s 1 -d -1 -p message -e 44 -c 2 -a 0 -i 56 -k RTR 
- -t 25.303022241 -s 1 -d -1 -p message -e 44 -c 2 -a 0 -i 56 -k RTR
h -t 25.303022241 -s 1 -d -1 -p message -e 44 -c 2 -a 0 -i 56 -k RTR
r -t 25.303958716 -s 9 -d -1 -p message -e 44 -c 2 -a 0 -i 56 -k RTR
r -t 25.303958957 -s 5 -d -1 -p message -e 44 -c 2 -a 0 -i 56 -k RTR
+ -t 25.477990058 -s 4 -d -1 -p message -e 56 -c 2 -a 0 -i 57 -k RTR 
- -t 25.477990058 -s 4 -d -1 -p message -e 56 -c 2 -a 0 -i 57 -k RTR
h -t 25.477990058 -s 4 -d -1 -p message -e 56 -c 2 -a 0 -i 57 -k RTR
r -t 25.479462604 -s 7 -d -1 -p message -e 56 -c 2 -a 0 -i 57 -k RTR
r -t 25.479462628 -s 6 -d -1 -p message -e 56 -c 2 -a 0 -i 57 -k RTR
r -t 25.479462740 -s 2 -d -1 -p message -e 56 -c 2 -a 0 -i 57 -k RTR
r -t 25.479462855 -s 9 -d -1 -p message -e 56 -c 2 -a 0 -i 57 -k RTR
+ -t 25.902681270 -s 2 -d -1 -p message -e 56 -c 2 -a 0 -i 58 -k RTR 
- -t 25.902681270 -s 2 -d -1 -p message -e 56 -c 2 -a 0 -i 58 -k RTR
h -t 25.902681270 -s 2 -d -1 -p message -e 56 -c 2 -a 0 -i 58 -k RTR
r -t 25.904053703 -s 8 -d -1 -p message -e 56 -c 2 -a 0 -i 58 -k RTR
r -t 25.904053912 -s 5 -d -1 -p message -e 56 -c 2 -a 0 -i 58 -k RTR
r -t 25.904053951 -s 4 -d -1 -p message -e 56 -c 2 -a 0 -i 58 -k RTR
+ -t 26.191331801 -s 9 -d -1 -p message -e 32 -c 2 -a 0 -i 59 -k RTR 
- -t 26.191331801 -s 9 -d -1 -p message -e 32 -c 2 -a 0 -i 59 -k RTR
h -t 26.191331801 -s 9 -d -1 -p message -e 32 -c 2 -a 0 -i 59 -k RTR
r -t 26.192672276 -s 1 -d -1 -p message -e 32 -c 2 -a 0 -i 59 -k RTR
r -t 26.192672598 -s 4 -d -1 -p message -e 32 -c 2 -a 0 -i 59 -k RTR
+ -t 26.432174093 -s 1 -d -1 -p message -e 68 -c 2 -a 0 -i 60 -k RTR 
- -t 26.432174093 -s 1 -d -1 -p message -e 68 -c 2 -a 0 -i 60 -k RTR
h -t 26.432174093 -s 1 -d -1 -p message -e 68 -c 2 -a 0 -i 60 -k RTR
r -t 26.433342568 -s 9 -d -1 -p message -e 68 -c 2 -a 0 -i 60 -k RTR
r -t 26.433342809 -s 5 -d -1 -p message -e 68 -c 2 -a 0 -i 60 -k RTR
+ -t 26.475653244 -s 4 -d -1 -p message -e 32 -c 2 -a 0 -i 61 -k RTR 
- -t 26.475653244 -s 4 -d -1 -p message -e 32 -c 2 -a 0 -i 61 -k RTR
h -t 26.475653244 -s 4 -d -1 -p message -e 32 -c 2 -a 0 -i 61 -k RTR
r -t 26.476753790 -s 7 -d -1 -p message -e 32 -c 2 -a 0 -i 61 -k RTR
r -t 26.476753813 -s 6 -d -1 -p message -e 32 -c 2 -a 0 -i 61 -k RTR
r -t 26.476753925 -s 2 -d -1 -p message -e 32 -c 2 -a 0 -i 61 -k RTR
r -t 26.476754041 -s 9 -d -1 -p message -e 32 -c 2 -a 0 -i 61 -k RTR
+ -t 26.592015019 -s 3 -d -1 -p message -e 44 -c 2 -a 0 -i 62 -k RTR 
- -t 26.592015019 -s 3 -d -1 -p message -e 44 -c 2 -a 0 -i 62 -k RTR
h -t 26.592015019 -s 3 -d -1 -p message -e 44 -c 2 -a 0 -i 62 -k RTR
r -t 26.593291099 -s 0 -d -1 -p message -e 44 -c 2 -a 0 -i 62 -k RTR
r -t 26.593291394 -s 6 -d -1 -p message -e 44 -c 2 -a 0 -i 62 -k RTR
r -t 26.593291429 -s 7 -d -1 -p message -e 44 -c 2 -a 0 -i 62 -k RTR
+ -t 27.301258688 -s 0 -d -1 -p message -e 32 -c 2 -a 0 -i 63 -k RTR 
- -t 27.301258688 -s 0 -d -1 -p message -e 32 -c 2 -a 0 -i 63 -k RTR
h -t 27.301258688 -s 0 -d -1 -p message -e 32 -c 2 -a 0 -i 63 -k RTR
r -t 27.302178768 -s 3 -d -1 -p message -e 32 -c 2 -a 0 -i 63 -k RTR
r -t 27.302179142 -s 6 -d -1 -p message -e 32 -c 2 -a 0 -i 63 -k RTR
r -t 27.302179176 -s 7 -d -1 -p message -e 32 -c 2 -a 0 -i 63 -k RTR
+ -t 27.559106393 -s 5 -d -1 -p message -e 68 -c 2 -a 0 -i 64 -k RTR 
- -t 27.559106393 -s 5 -d -1 -p message -e 68 -c 2 -a 0 -i 64 -k RTR
h -t 27.559106393 -s 5 -d -1 -p message -e 68 -c 2 -a 0 -i 64 -k RTR
r -t 27.560474777 -s 8 -d -1 -p message -e 68 -c 2 -a 0 -i 64 -k RTR
r -t 27.560475036 -s 2 -d -1 -p message -e 68 -c 2 -a 0 -i 64 -k RTR
r -t 27.560475110 -s 1 -d -1 -p message -e 68 -c 2 -a 0 -i 64 -k RTR
+ -t 29.100532271 -s 2 -d -1 -p message -e 68 -c 2 -a 0 -i 65 -k RTR 
- -t 29.100532271 -s 2 -d -1 -p message -e 68 -c 2 -a 0 -i 65 -k RTR
h -t 29.100532271 -s 2 -d -1 -p message -e 68 -c 2 -a 0 -i 65 -k RTR
r -t 29.101740704 -s 8 -d -1 -p message -e 68 -c 2 -a 0 -i 65 -k RTR
r -t 29.101740913 -s 5 -d -1 -p message -e 68 -c 2 -a 0 -i 65 -k RTR
r -t 29.101740953 -s 4 -d -1 -p message -e 68 -c 2 -a 0 -i 65 -k RTR
+ -t 30.710530210 -s 8 -d -1 -p message -e 32 -c 2 -a 0 -i 66 -k RTR 
- -t 30.710530210 -s 8 -d -1 -p message -e 32 -c 2 -a 0 -i 66 -k RTR
h -t 30.710530210 -s 8 -d -1 -p message -e 32 -c 2 -a 0 -i 66 -k RTR
r -t 30.711870593 -s 5 -d -1 -p message -e 32 -c 2 -a 0 -i 66 -k RTR
r -t 30.711870643 -s 2 -d -1 -p message -e 32 -c 2 -a 0 -i 66 -k RTR
+ -t 36.186339327 -s 4 -d -1 -p message -e 92 -c 2 -a 0 -i 69 -k RTR 
- -t 36.186339327 -s 4 -d -1 -p message -e 92 -c 2 -a 0 -i 69 -k RTR
h -t 36.186339327 -s 4 -d -1 -p message -e 92 -c 2 -a 0 -i 69 -k RTR
r -t 36.187859873 -s 7 -d -1 -p message -e 92 -c 2 -a 0 -i 69 -k RTR
r -t 36.187859897 -s 6 -d -1 -p message -e 92 -c 2 -a 0 -i 69 -k RTR
r -t 36.187860009 -s 2 -d -1 -p message -e 92 -c 2 -a 0 -i 69 -k RTR
r -t 36.187860124 -s 9 -d -1 -p message -e 92 -c 2 -a 0 -i 69 -k RTR
+ -t 36.189482565 -s 0 -d -1 -p message -e 92 -c 2 -a 0 -i 68 -k RTR 
- -t 36.189482565 -s 0 -d -1 -p message -e 92 -c 2 -a 0 -i 68 -k RTR
h -t 36.189482565 -s 0 -d -1 -p message -e 92 -c 2 -a 0 -i 68 -k RTR
r -t 36.191362645 -s 3 -d -1 -p message -e 92 -c 2 -a 0 -i 68 -k RTR
r -t 36.191363019 -s 6 -d -1 -p message -e 92 -c 2 -a 0 -i 68 -k RTR
r -t 36.191363053 -s 7 -d -1 -p message -e 92 -c 2 -a 0 -i 68 -k RTR
+ -t 36.191510240 -s 3 -d -1 -p message -e 80 -c 2 -a 0 -i 67 -k RTR 
- -t 36.191510240 -s 3 -d -1 -p message -e 80 -c 2 -a 0 -i 67 -k RTR
h -t 36.191510240 -s 3 -d -1 -p message -e 80 -c 2 -a 0 -i 67 -k RTR
r -t 36.192854319 -s 0 -d -1 -p message -e 80 -c 2 -a 0 -i 67 -k RTR
r -t 36.192854614 -s 6 -d -1 -p message -e 80 -c 2 -a 0 -i 67 -k RTR
r -t 36.192854649 -s 7 -d -1 -p message -e 80 -c 2 -a 0 -i 67 -k RTR
+ -t 36.201298273 -s 1 -d -1 -p message -e 44 -c 2 -a 0 -i 70 -k RTR 
- -t 36.201298273 -s 1 -d -1 -p message -e 44 -c 2 -a 0 -i 70 -k RTR
h -t 36.201298273 -s 1 -d -1 -p message -e 44 -c 2 -a 0 -i 70 -k RTR
r -t 36.202654748 -s 9 -d -1 -p message -e 44 -c 2 -a 0 -i 70 -k RTR
r -t 36.202654989 -s 5 -d -1 -p message -e 44 -c 2 -a 0 -i 70 -k RTR
+ -t 36.647794012 -s 6 -d -1 -p message -e 56 -c 2 -a 0 -i 72 -k RTR 
- -t 36.647794012 -s 6 -d -1 -p message -e 56 -c 2 -a 0 -i 72 -k RTR
h -t 36.647794012 -s 6 -d -1 -p message -e 56 -c 2 -a 0 -i 72 -k RTR
r -t 36.649046054 -s 7 -d -1 -p message -e 56 -c 2 -a 0 -i 72 -k RTR
r -t 36.649046387 -s 3 -d -1 -p message -e 56 -c 2 -a 0 -i 72 -k RTR
r -t 36.649046466 -s 0 -d -1 -p message -e 56 -c 2 -a 0 -i 72 -k RTR
r -t 36.649046582 -s 4 -d -1 -p message -e 56 -c 2 -a 0 -i 72 -k RTR
+ -t 36.649195884 -s 7 -d -1 -p message -e 56 -c 2 -a 0 -i 71 -k RTR 
- -t 36.649195884 -s 7 -d -1 -p message -e 56 -c 2 -a 0 -i 71 -k RTR
h -t 36.649195884 -s 7 -d -1 -p message -e 56 -c 2 -a 0 -i 71 -k RTR
r -t 36.650487925 -s 6 -d -1 -p message -e 56 -c 2 -a 0 -i 71 -k RTR
r -t 36.650488293 -s 3 -d -1 -p message -e 56 -c 2 -a 0 -i 71 -k RTR
r -t 36.650488372 -s 0 -d -1 -p message -e 56 -c 2 -a 0 -i 71 -k RTR
r -t 36.650488430 -s 4 -d -1 -p message -e 56 -c 2 -a 0 -i 71 -k RTR
+ -t 36.732235982 -s 9 -d -1 -p message -e 56 -c 2 -a 0 -i 73 -k RTR 
- -t 36.732235982 -s 9 -d -1 -p message -e 56 -c 2 -a 0 -i 73 -k RTR
h -t 36.732235982 -s 9 -d -1 -p message -e 56 -c 2 -a 0 -i 73 -k RTR
r -t 36.733688457 -s 1 -d -1 -p message -e 56 -c 2 -a 0 -i 73 -k RTR
r -t 36.733688779 -s 4 -d -1 -p message -e 56 -c 2 -a 0 -i 73 -k RTR
+ -t 36.906076439 -s 5 -d -1 -p message -e 56 -c 2 -a 0 -i 75 -k RTR 
- -t 36.906076439 -s 5 -d -1 -p message -e 56 -c 2 -a 0 -i 75 -k RTR
h -t 36.906076439 -s 5 -d -1 -p message -e 56 -c 2 -a 0 -i 75 -k RTR