M 0.00000 1 (441.60, 466.01, 0.00), (441.60, 466.01), 0.00
M 0.00000 2 (312.62, 136.79, 0.00), (312.62, 136.79), 0.00
M 0.00000 3 (10.12, 21.61, 0.00), (10.12, 21.61), 0.00
M 0.00000 4 (151.41, 262.63, 0.00), (151.41, 262.63), 0.00
M 0.00000 5 (466.61, 252.61, 0.00), (466.61, 252.61), 0.00
M 0.00000 6 (46.15, 128.04, 0.00), (46.15, 128.04), 0.00
M 0.00000 7 (42.76, 140.03, 0.00), (42.76, 140.03), 0.00
M 0.00000 8 (442.65, 140.05, 0.00), (442.65, 140.05), 0.00
M 0.00000 0 (0.00, 0.00, 0.00), (442.65, 140.05), 0.00
M 0.00000 9 (300.00, 450.00, 0.00), (442.65, 140.05), 0.00
s 0.036772557 _1_ RTR  --- 0 message 32 [0 0 0 0] ------- [1:255 -1:255 32 0] 
r 0.038133032 _9_ RTR  --- 0 message 32 [0 ffffffff 1 800] ------- [1:255 -1:255 32 0] 
r 0.038133273 _5_ RTR  --- 0 message 32 [0 ffffffff 1 800] ------- [1:255 -1:255 32 0] 
s 0.177383425 _2_ RTR  --- 1 message 32 [0 0 0 0] ------- [2:255 -1:255 32 0] 
r 0.178363859 _8_ RTR  --- 1 message 32 [0 ffffffff 2 800] ------- [2:255 -1:255 32 0] 
r 0.178364067 _5_ RTR  --- 1 message 32 [0 ffffffff 2 800] ------- [2:255 -1:255 32 0] 
r 0.178364107 _4_ RTR  --- 1 message 32 [0 ffffffff 2 800] ------- [2:255 -1:255 32 0] 
s 0.470144892 _7_ RTR  --- 2 message 32 [0 0 0 0] ------- [7:255 -1:255 32 0] 
r 0.471164934 _6_ RTR  --- 2 message 32 [0 ffffffff 7 800] ------- [7:255 -1:255 32 0] 
r 0.471165302 _3_ RTR  --- 2 message 32 [0 ffffffff 7 800] ------- [7:255 -1:255 32 0] 
r 0.471165380 _0_ RTR  --- 2 message 32 [0 ffffffff 7 800] ------- [7:255 -1:255 32 0] 
r 0.471165438 _4_ RTR  --- 2 message 32 [0 ffffffff 7 800] ------- [7:255 -1:255 32 0] 
s 0.622244972 _9_ RTR  --- 3 message 32 [0 0 0 0] ------- [9:255 -1:255 32 0] 
r 0.623505447 _1_ RTR  --- 3 message 32 [0 ffffffff 9 800] ------- [9:255 -1:255 32 0] 
r 0.623505770 _4_ RTR  --- 3 message 32 [0 ffffffff 9 800] ------- [9:255 -1:255 32 0] 
s 0.634544216 _5_ RTR  --- 4 message 32 [0 0 0 0] ------- [5:255 -1:255 32 0] 
r 0.635904600 _8_ RTR  --- 4 message 32 [0 ffffffff 5 800] ------- [5:255 -1:255 32 0] 
r 0.635904858 _2_ RTR  --- 4 message 32 [0 ffffffff 5 800] ------- [5:255 -1:255 32 0] 
r 0.635904932 _1_ RTR  --- 4 message 32 [0 ffffffff 5 800] ------- [5:255 -1:255 32 0] 
s 0.890857830 _3_ RTR  --- 5 message 32 [0 0 0 0] ------- [3:255 -1:255 32 0] 
r 0.892037909 _0_ RTR  --- 5 message 32 [0 ffffffff 3 800] ------- [3:255 -1:255 32 0] 
r 0.892038204 _6_ RTR  --- 5 message 32 [0 ffffffff 3 800] ------- [3:255 -1:255 32 0] 
r 0.892038239 _7_ RTR  --- 5 message 32 [0 ffffffff 3 800] ------- [3:255 -1:255 32 0] 
s 1.000000000 _0_ AGT  --- 6 tcp 40 [0 0 0 0] ------- [0:0 9:0 32 0] [0 0] 0 0
r 1.000000000 _0_ RTR  --- 6 tcp 40 [0 0 0 0] ------- [0:0 9:0 32 0] [0 0] 0 0
s 1.115816623 _0_ RTR  --- 7 message 32 [0 0 0 0] ------- [0:255 -1:255 32 0] 
r 1.116836702 _3_ RTR  --- 7 message 32 [0 ffffffff 0 800] ------- [0:255 -1:255 32 0] 
r 1.116837076 _6_ RTR  --- 7 message 32 [0 ffffffff 0 800] ------- [0:255 -1:255 32 0] 
r 1.116837111 _7_ RTR  --- 7 message 32 [0 ffffffff 0 800] ------- [0:255 -1:255 32 0] 
s 1.286604722 _8_ RTR  --- 8 message 32 [0 0 0 0] ------- [8:255 -1:255 32 0] 
r 1.287625106 _5_ RTR  --- 8 message 32 [0 ffffffff 8 800] ------- [8:255 -1:255 32 0] 
r 1.287625156 _2_ RTR  --- 8 message 32 [0 ffffffff 8 800] ------- [8:255 -1:255 32 0] 
s 1.598894933 _4_ RTR  --- 9 message 32 [0 0 0 0] ------- [4:255 -1:255 32 0] 
r 1.600055479 _7_ RTR  --- 9 message 32 [0 ffffffff 4 800] ------- [4:255 -1:255 32 0] 
r 1.600055503 _6_ RTR  --- 9 message 32 [0 ffffffff 4 800] ------- [4:255 -1:255 32 0] 
r 1.600055615 _2_ RTR  --- 9 message 32 [0 ffffffff 4 800] ------- [4:255 -1:255 32 0] 
r 1.600055730 _9_ RTR  --- 9 message 32 [0 ffffffff 4 800] ------- [4:255 -1:255 32 0] 
s 1.634183138 _6_ RTR  --- 10 message 32 [0 0 0 0] ------- [6:255 -1:255 32 0] 
r 1.635283179 _7_ RTR  --- 10 message 32 [0 ffffffff 6 800] ------- [6:255 -1:255 32 0] 
r 1.635283512 _3_ RTR  --- 10 message 32 [0 ffffffff 6 800] ------- [6:255 -1:255 32 0] 
r 1.635283591 _0_ RTR  --- 10 message 32 [0 ffffffff 6 800] ------- [6:255 -1:255 32 0] 
r 1.635283707 _4_ RTR  --- 10 message 32 [0 ffffffff 6 800] ------- [6:255 -1:255 32 0] 
s 4.000000000 _0_ AGT  --- 11 tcp 40 [0 0 0 0] ------- [0:0 9:0 32 0] [0 0] 0 0
r 4.000000000 _0_ RTR  --- 11 tcp 40 [0 0 0 0] ------- [0:0 9:0 32 0] [0 0] 0 0
s 10.000000000 _0_ AGT  --- 12 tcp 40 [0 0 0 0] ------- [0:0 9:0 32 0] [0 0] 0 0
r 10.000000000 _0_ RTR  --- 12 tcp 40 [0 0 0 0] ------- [0:0 9:0 32 0] [0 0] 0 0
s 11.899402816 _1_ RTR  --- 13 message 32 [0 0 0 0] ------- [1:255 -1:255 32 0] 
r 11.900543291 _9_ RTR  --- 13 message 32 [0 ffffffff 1 800] ------- [1:255 -1:255 32 0] 
r 11.900543532 _5_ RTR  --- 13 message 32 [0 ffffffff 1 800] ------- [1:255 -1:255 32 0] 
s 12.178639642 _5_ RTR  --- 17 message 32 [0 0 0 0] ------- [5:255 -1:255 32 0] 
r 12.179460026 _8_ RTR  --- 17 message 32 [0 ffffffff 5 800] ------- [5:255 -1:255 32 0] 
r 12.179460284 _2_ RTR  --- 17 message 32 [0 ffffffff 5 800] ------- [5:255 -1:255 32 0] 
r 12.179460358 _1_ RTR  --- 17 message 32 [0 ffffffff 5 800] ------- [5:255 -1:255 32 0] 
s 12.181637277 _4_ RTR  --- 18 message 32 [0 0 0 0] ------- [4:255 -1:255 32 0] 
s 12.182620731 _8_ RTR  --- 16 message 32 [0 0 0 0] ------- [8:255 -1:255 32 0] 
r 12.182757823 _7_ RTR  --- 18 message 32 [0 ffffffff 4 800] ------- [4:255 -1:255 32 0] 
r 12.182757846 _6_ RTR  --- 18 message 32 [0 ffffffff 4 800] ------- [4:255 -1:255 32 0] 
r 12.182757958 _2_ RTR  --- 18 message 32 [0 ffffffff 4 800] ------- [4:255 -1:255 32 0] 
r 12.182758074 _9_ RTR  --- 18 message 32 [0 ffffffff 4 800] ------- [4:255 -1:255 32 0] 
r 12.184172714 _5_ RTR  --- 16 message 32 [0 ffffffff 8 800] ------- [8:255 -1:255 32 0] 
r 12.184172764 _2_ RTR  --- 16 message 32 [0 ffffffff 8 800] ------- [8:255 -1:255 32 0] 
s 12.472078949 _0_ RTR  --- 21 message 32 [0 0 0 0] ------- [0:255 -1:255 32 0] 
r 12.472939029 _3_ RTR  --- 21 message 32 [0 ffffffff 0 800] ------- [0:255 -1:255 32 0] 
r 12.472939403 _6_ RTR  --- 21 message 32 [0 ffffffff 0 800] ------- [0:255 -1:255 32 0] 
r 12.472939437 _7_ RTR  --- 21 message 32 [0 ffffffff 0 800] ------- [0:255 -1:255 32 0] 
s 12.472952212 _6_ RTR  --- 19 message 32 [0 0 0 0] ------- [6:255 -1:255 32 0] 
r 12.473892254 _7_ RTR  --- 19 message 32 [0 ffffffff 6 800] ------- [6:255 -1:255 32 0] 
r 12.473892587 _3_ RTR  --- 19 message 32 [0 ffffffff 6 800] ------- [6:255 -1:255 32 0] 
r 12.473892666 _0_ RTR  --- 19 message 32 [0 ffffffff 6 800] ------- [6:255 -1:255 32 0] 
r 12.473892782 _4_ RTR  --- 19 message 32 [0 ffffffff 6 800] ------- [6:255 -1:255 32 0] 
s 12.480925369 _3_ RTR  --- 20 message 32 [0 0 0 0] ------- [3:255 -1:255 32 0] 
r 12.481845448 _0_ RTR  --- 20 message 32 [0 ffffffff 3 800] ------- [3:255 -1:255 32 0] 
r 12.481845743 _6_ RTR  --- 20 message 32 [0 ffffffff 3 800] ------- [3:255 -1:255 32 0] 
r 12.481845778 _7_ RTR  --- 20 message 32 [0 ffffffff 3 800] ------- [3:255 -1:255 32 0] 
s 12.636786860 _2_ RTR  --- 22 message 32 [0 0 0 0] ------- [2:255 -1:255 32 0] 
r 12.637807293 _8_ RTR  --- 22 message 32 [0 ffffffff 2 800] ------- [2:255 -1:255 32 0] 
r 12.637807502 _5_ RTR  --- 22 message 32 [0 ffffffff 2 800] ------- [2:255 -1:255 32 0] 
r 12.637807542 _4_ RTR  --- 22 message 32 [0 ffffffff 2 800] ------- [2:255 -1:255 32 0] 
s 12.778536119 _0_ RTR  --- 23 message 44 [0 0 0 0] ------- [0:255 -1:255 32 0] 
r 12.779572199 _3_ RTR  --- 23 message 44 [0 ffffffff 0 800] ------- [0:255 -1:255 32 0] 
r 12.779572573 _6_ RTR  --- 23 message 44 [0 ffffffff 0 800] ------- [0:255 -1:255 32 0] 
r 12.779572607 _7_ RTR  --- 23 message 44 [0 ffffffff 0 800] ------- [0:255 -1:255 32 0] 
s 12.896862294 _4_ RTR  --- 24 message 68 [0 0 0 0] ------- [4:255 -1:255 32 0] 
s 12.897622325 _7_ RTR  --- 25 message 32 [0 0 0 0] ------- [7:255 -1:255 32 0] 
r 12.898510840 _7_ RTR  --- 24 message 68 [0 ffffffff 4 800] ------- [4:255 -1:255 32 0] 
r 12.898510864 _6_ RTR  --- 24 message 68 [0 ffffffff 4 800] ------- [4:255 -1:255 32 0] 
r 12.898510976 _2_ RTR  --- 24 message 68 [0 ffffffff 4 800] ------- [4:255 -1:255 32 0] 
r 12.898511091 _9_ RTR  --- 24 message 68 [0 ffffffff 4 800] ------- [4:255 -1:255 32 0] 
r 12.899580882 _6_ RTR  --- 25 message 32 [0 ffffffff 7 800] ------- [7:255 -1:255 32 0] 
r 12.899581250 _3_ RTR  --- 25 message 32 [0 ffffffff 7 800] ------- [7:255 -1:255 32 0] 
r 12.899581328 _0_ RTR  --- 25 message 32 [0 ffffffff 7 800] ------- [7:255 -1:255 32 0] 
r 12.899581386 _4_ RTR  --- 25 message 32 [0 ffffffff 7 800] ------- [7:255 -1:255 32 0] 
s 12.902110419 _1_ RTR  --- 26 message 44 [0 0 0 0] ------- [1:255 -1:255 32 0] 
r 12.903366894 _9_ RTR  --- 26 message 44 [0 ffffffff 1 800] ------- [1:255 -1:255 32 0] 
r 12.903367136 _5_ RTR  --- 26 message 44 [0 ffffffff 1 800] ------- [1:255 -1:255 32 0] 
s 13.178365604 _8_ RTR  --- 27 message 44 [0 0 0 0] ------- [8:255 -1:255 32 0] 
r 13.179501988 _5_ RTR  --- 27 message 44 [0 ffffffff 8 800] ------- [8:255 -1:255 32 0] 
r 13.179502038 _2_ RTR  --- 27 message 44 [0 ffffffff 8 800] ------- [8:255 -1:255 32 0] 
s 13.294582004 _5_ RTR  --- 28 message 44 [0 0 0 0] ------- [5:255 -1:255 32 0] 
r 13.295938387 _8_ RTR  --- 28 message 44 [0 ffffffff 5 800] ------- [5:255 -1:255 32 0] 
r 13.295938646 _2_ RTR  --- 28 message 44 [0 ffffffff 5 800] ------- [5:255 -1:255 32 0] 
r 13.295938720 _1_ RTR  --- 28 message 44 [0 ffffffff 5 800] ------- [5:255 -1:255 32 0] 
s 13.474215191 _3_ RTR  --- 30 message 32 [0 0 0 0] ------- [3:255 -1:255 32 0] 
s 13.474817407 _6_ RTR  --- 29 message 44 [0 0 0 0] ------- [6:255 -1:255 32 0] 
r 13.475255271 _0_ RTR  --- 30 message 32 [0 ffffffff 3 800] ------- [3:255 -1:255 32 0] 
r 13.475255566 _6_ RTR  --- 30 message 32 [0 ffffffff 3 800] ------- [3:255 -1:255 32 0] 
r 13.475255601 _7_ RTR  --- 30 message 32 [0 ffffffff 3 800] ------- [3:255 -1:255 32 0] 
r 13.476121608 _7_ RTR  --- 29 message 44 [0 ffffffff 6 800] ------- [6:255 -1:255 32 0] 
r 13.476121941 _3_ RTR  --- 29 message 44 [0 ffffffff 6 800] ------- [6:255 -1:255 32 0] 
r 13.476122020 _0_ RTR  --- 29 message 44 [0 ffffffff 6 800] ------- [6:255 -1:255 32 0] 
r 13.476122136 _4_ RTR  --- 29 message 44 [0 ffffffff 6 800] ------- [6:255 -1:255 32 0] 
s 13.643963177 _2_ RTR  --- 32 message 44 [0 0 0 0] ------- [2:255 -1:255 32 0] 
r 13.645299610 _8_ RTR  --- 32 message 44 [0 ffffffff 2 800] ------- [2:255 -1:255 32 0] 
r 13.645299819 _5_ RTR  --- 32 message 44 [0 ffffffff 2 800] ------- [2:255 -1:255 32 0] 
r 13.645299858 _4_ RTR  --- 32 message 44 [0 ffffffff 2 800] ------- [2:255 -1:255 32 0] 
s 13.778808056 _0_ RTR  --- 33 message 44 [0 0 0 0] ------- [0:255 -1:255 32 0] 
r 13.779884136 _3_ RTR  --- 33 message 44 [0 ffffffff 0 800] ------- [0:255 -1:255 32 0] 
r 13.779884510 _6_ RTR  --- 33 message 44 [0 ffffffff 0 800] ------- [0:255 -1:255 32 0] 
r 13.779884544 _7_ RTR  --- 33 message 44 [0 ffffffff 0 800] ------- [0:255 -1:255 32 0] 
s 13.818298565 _9_ RTR  --- 34 message 32 [0 0 0 0] ------- [9:255 -1:255 32 0] 
r 13.819119040 _1_ RTR  --- 34 message 32 [0 ffffffff 9 800] ------- [9:255 -1:255 32 0] 
r 13.819119362 _4_ RTR  --- 34 message 32 [0 ffffffff 9 800] ------- [9:255 -1:255 32 0] 
s 13.893241319 _4_ RTR  --- 35 message 32 [0 0 0 0] ------- [4:255 -1:255 32 0] 
r 13.894481866 _7_ RTR  --- 35 message 32 [0 ffffffff 4 800] ------- [4:255 -1:255 32 0] 
r 13.894481889 _6_ RTR  --- 35 message 32 [0 ffffffff 4 800] ------- [4:255 -1:255 32 0] 
r 13.894482001 _2_ RTR  --- 35 message 32 [0 ffffffff 4 800] ------- [4:255 -1:255 32 0] 
r 13.894482117 _9_ RTR  --- 35 message 32 [0 ffffffff 4 800] ------- [4:255 -1:255 32 0] 
s 13.896410461 _7_ RTR  --- 36 message 44 [0 0 0 0] ------- [7:255 -1:255 32 0] 
r 13.897346502 _6_ RTR  --- 36 message 44 [0 ffffffff 7 800] ------- [7:255 -1:255 32 0] 
r 13.897346870 _3_ RTR  --- 36 message 44 [0 ffffffff 7 800] ------- [7:255 -1:255 32 0] 
r 13.897346949 _0_ RTR  --- 36 message 44 [0 ffffffff 7 800] ------- [7:255 -1:255 32 0] 
r 13.897347007 _4_ RTR  --- 36 message 44 [0 ffffffff 7 800] ------- [7:255 -1:255 32 0] 
s 14.475394626 _3_ RTR  --- 38 message 44 [0 0 0 0] ------- [3:255 -1:255 32 0] 
s 14.475468982 _6_ RTR  --- 37 message 44 [0 0 0 0] ------- [6:255 -1:255 32 0] 
r 14.476330705 _0_ RTR  --- 38 message 44 [0 ffffffff 3 800] ------- [3:255 -1:255 32 0] 
r 14.476331000 _6_ RTR  --- 38 message 44 [0 ffffffff 3 800] ------- [3:255 -1:255 32 0] 
r 14.476331035 _7_ RTR  --- 38 message 44 [0 ffffffff 3 800] ------- [3:255 -1:255 32 0] 
r 14.477577042 _7_ RTR  --- 37 message 44 [0 ffffffff 6 800] ------- [6:255 -1:255 32 0] 
r 14.477577375 _3_ RTR  --- 37 message 44 [0 ffffffff 6 800] ------- [6:255 -1:255 32 0] 
r 14.477577454 _0_ RTR  --- 37 message 44 [0 ffffffff 6 800] ------- [6:255 -1:255 32 0] 
r 14.477577570 _4_ RTR  --- 37 message 44 [0 ffffffff 6 800] ------- [6:255 -1:255 32 0] 
s 14.656453107 _2_ RTR  --- 39 message 56 [0 0 0 0] ------- [2:255 -1:255 32 0] 
r 14.657645540 _8_ RTR  --- 39 message 56 [0 ffffffff 2 800] ------- [2:255 -1:255 32 0] 
r 14.657645749 _5_ RTR  --- 39 message 56 [0 ffffffff 2 800] ------- [2:255 -1:255 32 0] 
r 14.657645788 _4_ RTR  --- 39 message 56 [0 ffffffff 2 800] ------- [2:255 -1:255 32 0] 
s 14.673050191 _3_ RTR  --- 40 message 56 [0 0 0 0] ------- [3:255 -1:255 32 0] 
r 14.674302271 _0_ RTR  --- 40 message 56 [0 ffffffff 3 800] ------- [3:255 -1:255 32 0] 
r 14.674302566 _6_ RTR  --- 40 message 56 [0 ffffffff 3 800] ------- [3:255 -1:255 32 0] 
r 14.674302601 _7_ RTR  --- 40 message 56 [0 ffffffff 3 800] ------- [3:255 -1:255 32 0] 
s 14.751345592 _7_ RTR  --- 41 message 44 [0 0 0 0] ------- [7:255 -1:255 32 0] 
r 14.752801634 _6_ RTR  --- 41 message 44 [0 ffffffff 7 800] ------- [7:255 -1:255 32 0] 
r 14.752802002 _3_ RTR  --- 41 message 44 [0 ffffffff 7 800] ------- [7:255 -1:255 32 0] 
r 14.752802080 _0_ RTR  --- 41 message 44 [0 ffffffff 7 800] ------- [7:255 -1:255 32 0] 
r 14.752802138 _4_ RTR  --- 41 message 44 [0 ffffffff 7 800] ------- [7:255 -1:255 32 0] 
s 15.025855033 _5_ RTR  --- 42 message 44 [0 0 0 0] ------- [5:255 -1:255 32 0] 
r 15.026991417 _8_ RTR  --- 42 message 44 [0 ffffffff 5 800] ------- [5:255 -1:255 32 0] 
r 15.026991675 _2_ RTR  --- 42 message 44 [0 ffffffff 5 800] ------- [5:255 -1:255 32 0] 
r 15.026991749 _1_ RTR  --- 42 message 44 [0 ffffffff 5 800] ------- [5:255 -1:255 32 0] 
s 15.394625805 _6_ RTR  --- 43 message 32 [0 0 0 0] ------- [6:255 -1:255 32 0] 
r 15.395965846 _7_ RTR  --- 43 message 32 [0 ffffffff 6 800] ------- [6:255 -1:255 32 0] 
r 15.395966179 _3_ RTR  --- 43 message 32 [0 ffffffff 6 800] ------- [6:255 -1:255 32 0] 
r 15.395966259 _0_ RTR  --- 43 message 32 [0 ffffffff 6 800] ------- [6:255 -1:255 32 0] 
r 15.395966374 _4_ RTR  --- 43 message 32 [0 ffffffff 6 800] ------- [6:255 -1:255 32 0] 
s 16.080823599 _8_ RTR  --- 44 message 32 [0 0 0 0] ------- [8:255 -1:255 32 0] 
r 16.082023982 _5_ RTR  --- 44 message 32 [0 ffffffff 8 800] ------- [8:255 -1:255 32 0] 
r 16.082024032 _2_ RTR  --- 44 message 32 [0 ffffffff 8 800] ------- [8:255 -1:255 32 0] 
s 22.000000000 _0_ AGT  --- 45 tcp 40 [0 0 0 0] ------- [0:0 9:0 32 0] [0 0] 0 0
r 22.000000000 _0_ RTR  --- 45 tcp 40 [0 0 0 0] ------- [0:0 9:0 32 0] [0 0] 0 0
s 24.180978297 _1_ RTR  --- 46 message 32 [0 0 0 0] ------- [1:255 -1:255 32 0] 
r 24.181798772 _9_ RTR  --- 46 message 32 [0 ffffffff 1 800] ------- [1:255 -1:255 32 0] 
r 24.181799013 _5_ RTR  --- 46 message 32 [0 ffffffff 1 800] ------- [1:255 -1:255 32 0] 
s 24.183422697 _6_ RTR  --- 48 message 56 [0 0 0 0] ------- [6:255 -1:255 32 0] 
r 24.185034738 _7_ RTR  --- 48 message 56 [0 ffffffff 6 800] ------- [6:255 -1:255 32 0] 
r 24.185035071 _3_ RTR  --- 48 message 56 [0 ffffffff 6 800] ------- [6:255 -1:255 32 0] 
r 24.185035151 _0_ RTR  --- 48 message 56 [0 ffffffff 6 800] ------- [6:255 -1:255 32 0] 
r 24.185035266 _4_ RTR  --- 48 message 56 [0 ffffffff 6 800] ------- [6:255 -1:255 32 0] 
s 24.188111349 _7_ RTR  --- 47 message 56 [0 0 0 0] ------- [7:255 -1:255 32 0] 
r 24.189663390 _6_ RTR  --- 47 message 56 [0 ffffffff 7 800] ------- [7:255 -1:255 32 0] 
r 24.189663758 _3_ RTR  --- 47 message 56 [0 ffffffff 7 800] ------- [7:255 -1:255 32 0] 
r 24.189663837 _0_ RTR  --- 47 message 56 [0 ffffffff 7 800] ------- [7:255 -1:255 32 0] 
r 24.189663895 _4_ RTR  --- 47 message 56 [0 ffffffff 7 800] ------- [7:255 -1:255 32 0] 
s 24.192476380 _9_ RTR  --- 49 message 56 [0 0 0 0] ------- [9:255 -1:255 32 0] 
r 24.193528855 _1_ RTR  --- 49 message 56 [0 ffffffff 9 800] ------- [9:255 -1:255 32 0] 
r 24.193529177 _4_ RTR  --- 49 message 56 [0 ffffffff 9 800] ------- [9:255 -1:255 32 0] 
s 24.639866366 _4_ RTR  --- 50 message 44 [0 0 0 0] ------- [4:255 -1:255 32 0] 
r 24.640782912 _7_ RTR  --- 50 message 44 [0 ffffffff 4 800] ------- [4:255 -1:255 32 0] 
r 24.640782936 _6_ RTR  --- 50 message 44 [0 ffffffff 4 800] ------- [4:255 -1:255 32 0] 
r 24.640783048 _2_ RTR  --- 50 message 44 [0 ffffffff 4 800] ------- [4:255 -1:255 32 0] 
r 24.640783164 _9_ RTR  --- 50 message 44 [0 ffffffff 4 800] ------- [4:255 -1:255 32 0] 
s 24.900129535 _2_ RTR  --- 51 message 44 [0 0 0 0] ------- [2:255 -1:255 32 0] 
r 24.901345968 _8_ RTR  --- 51 message 44 [0 ffffffff 2 800] ------- [2:255 -1:255 32 0] 
r 24.901346177 _5_ RTR  --- 51 message 44 [0 ffffffff 2 800] ------- [2:255 -1:255 32 0] 
r 24.901346217 _4_ RTR  --- 51 message 44 [0 ffffffff 2 800] ------- [2:255 -1:255 32 0] 
s 24.909484417 _5_ RTR  --- 52 message 44 [0 0 0 0] ------- [5:255 -1:255 32 0] 
r 24.910880801 _8_ RTR  --- 52 message 44 [0 ffffffff 5 800] ------- [5:255 -1:255 32 0] 
r 24.910881060 _2_ RTR  --- 52 message 44 [0 ffffffff 5 800] ------- [5:255 -1:255 32 0] 
r 24.910881134 _1_ RTR  --- 52 message 44 [0 ffffffff 5 800] ------- [5:255 -1:255 32 0] 
s 25.183173576 _6_ RTR  --- 54 message 80 [0 0 0 0] ------- [6:255 -1:255 32 0] 
s 25.183952232 _9_ RTR  --- 55 message 92 [0 0 0 0] ------- [9:255 -1:255 32 0] 
s 25.184422318 _7_ RTR  --- 53 message 80 [0 0 0 0] ------- [7:255 -1:255 32 0] 
r 25.184697618 _7_ RTR  --- 54 message 80 [0 ffffffff 6 800] ------- [6:255 -1:255 32 0] 
r 25.184697951 _3_ RTR  --- 54 message 80 [0 ffffffff 6 800] ------- [6:255 -1:255 32 0] 
r 25.184698030 _0_ RTR  --- 54 message 80 [0 ffffffff 6 800] ------- [6:255 -1:255 32 0] 
r 25.184698146 _4_ RTR  --- 54 message 80 [0 ffffffff 6 800] ------- [6:255 -1:255 32 0] 
r 25.185911659 _6_ RTR  --- 53 message 80 [0 ffffffff 7 800] ------- [7:255 -1:255 32 0] 
r 25.185912027 _3_ RTR  --- 53 message 80 [0 ffffffff 7 800] ------- [7:255 -1:255 32 0] 
r 25.185912106 _0_ RTR  --- 53 message 80 [0 ffffffff 7 800] ------- [7:255 -1:255 32 0] 
r 25.185912164 _4_ RTR  --- 53 message 80 [0 ffffffff 7 800] ------- [7:255 -1:255 32 0] 
r 25.187907436 _1_ RTR  --- 55 message 92 [0 ffffffff 9 800] ------- [9:255 -1:255 32 0] 
r 25.187907758 _4_ RTR  --- 55 message 92 [0 ffffffff 9 800] ------- [9:255 -1:255 32 0] 
s 25.303022241 _1_ RTR  --- 56 message 44 [0 0 0 0] ------- [1:255 -1:255 32 0] 
r 25.303958716 _9_ RTR  --- 56 message 44 [0 ffffffff 1 800] ------- [1:255 -1:255 32 0] 
r 25.303958957 _5_ RTR  --- 56 message 44 [0 ffffffff 1 800] ------- [1:255 -1:255 32 0] 
s 25.477990058 _4_ RTR  --- 57 message 56 [0 0 0 0] ------- [4:255 -1:255 32 0] 
r 25.479462604 _7_ RTR  --- 57 message 56 [0 ffffffff 4 800] ------- [4:255 -1:255 32 0] 
r 25.479462628 _6_ RTR  --- 57 message 56 [0 ffffffff 4 800] ------- [4:255 -1:255 32 0] 
r 25.479462740 _2_ RTR  --- 57 message 56 [0 ffffffff 4 800] ------- [4:255 -1:255 32 0] 
r 25.479462855 _9_ RTR  --- 57 message 56 [0 ffffffff 4 800] ------- [4:255 -1:255 32 0] 
s 25.902681270 _2_ RTR  --- 58 message 56 [0 0 0 0] ------- [2:255 -1:255 32 0] 
r 25.904053703 _8_ RTR  --- 58 message 56 [0 ffffffff 2 800] ------- [2:255 -1:255 32 0] 
r 25.904053912 _5_ RTR  --- 58 message 56 [0 ffffffff 2 800] ------- [2:255 -1:255 32 0] 
r 25.904053951 _4_ RTR  --- 58 message 56 [0 ffffffff 2 800] ------- [2:255 -1:255 32 0] 
s 26.191331801 _9_ RTR  --- 59 message 32 [0 0 0 0] ------- [9:255 -1:255 32 0] 
r 26.192672276 _1_ RTR  --- 59 message 32 [0 ffffffff 9 800] ------- [9:255 -1:255 32 0] 
r 26.192672598 _4_ RTR  --- 59 message 32 [0 ffffffff 9 800] ------- [9:255 -1:255 32 0] 
s 26.432174093 _1_ RTR  --- 60 message 68 [0 0 0 0] ------- [1:255 -1:255 32 0] 
r 26.433342568 _9_ RTR  --- 60 message 68 [0 ffffffff 1 800] ------- [1:255 -1:255 32 0] 
r 26.433342809 _5_ RTR  --- 60 message 68 [0 ffffffff 1 800] ------- [1:255 -1:255 32 0] 
s 26.475653244 _4_ RTR  --- 61 message 32 [0 0 0 0] ------- [4:255 -1:255 32 0] 
r 26.476753790 _7_ RTR  --- 61 message 32 [0 ffffffff 4 800] ------- [4:255 -1:255 32 0] 
r 26.476753813 _6_ RTR  --- 61 message 32 [0 ffffffff 4 800] ------- [4:255 -1:255 32 0] 
r 26.476753925 _2_ RTR  --- 61 message 32 [0 ffffffff 4 800] ------- [4:255 -1:255 32 0] 
r 26.476754041 _9_ RTR  --- 61 message 32 [0 ffffffff 4 800] ------- [4:255 -1:255 32 0] 
s 26.592015019 _3_ RTR  --- 62 message 44 [0 0 0 0] ------- [3:255 -1:255 32 0] 
r 26.593291099 _0_ RTR  --- 62 message 44 [0 ffffffff 3 800] ------- [3:255 -1:255 32 0] 
r 26.593291394 _6_ RTR  --- 62 message 44 [0 ffffffff 3 800] ------- [3:255 -1:255 32 0] 
r 26.593291429 _7_ RTR  --- 62 message 44 [0 ffffffff 3 800] ------- [3:255 -1:255 32 0] 
s 27.301258688 _0_ RTR  --- 63 message 32 [0 0 0 0] ------- [0:255 -1:255 32 0] 
r 27.302178768 _3_ RTR  --- 63 message 32 [0 ffffffff 0 800] ------- [0:255 -1:255 32 0] 
r 27.302179142 _6_ RTR  --- 63 message 32 [0 ffffffff 0 800] ------- [0:255 -1:255 32 0] 
r 27.302179176 _7_ RTR  --- 63 message 32 [0 ffffffff 0 800] ------- [0:255 -1:255 32 0] 
s 27.559106393 _5_ RTR  --- 64 message 68 [0 0 0 0] ------- [5:255 -1:255 32 0] 
r 27.560474777 _8_ RTR  --- 64 message 68 [0 ffffffff 5 800] ------- [5:255 -1:255 32 0] 
r 27.560475036 _2_ RTR  --- 64 message 68 [0 ffffffff 5 800] ------- [5:255 -1:255 32 0] 
r 27.560475110 _1_ RTR  --- 64 message 68 [0 ffffffff 5 800] ------- [5:255 -1:255 32 0] 
s 29.100532271 _2_ RTR  --- 65 message 68 [0 0 0 0] ------- [2:255 -1:255 32 0] 
r 29.101740704 _8_ RTR  --- 65 message 68 [0 ffffffff 2 800] ------- [2:255 -1:255 32 0] 
r 29.101740913 _5_ RTR  --- 65 message 68 [0 ffffffff 2 800] ------- [2:255 -1:255 32 0] 
r 29.101740953 _4_ RTR  --- 65 message 68 [0 ffffffff 2 800] ------- [2:255 -1:255 32 0] 
s 30.710530210 _8_ RTR  --- 66 message 32 [0 0 0 0] ------- [8:255 -1:255 32 0] 
r 30.711870593 _5_ RTR  --- 66 message 32 [0 ffffffff 8 800] ------- [8:255 -1:255 32 0] 
r 30.711870643 _2_ RTR  --- 66 message 32 [0 ffffffff 8 800] ------- [8:255 -1:255 32 0] 
s 36.186339327 _4_ RTR  --- 69 message 92 [0 0 0 0] ------- [4:255 -1:255 32 0] 
r 36.187859873 _7_ RTR  --- 69 message 92 [0 ffffffff 4 800] ------- [4:255 -1:255 32 0] 
r 36.187859897 _6_ RTR  --- 69 message 92 [0 ffffffff 4 800] ------- [4:255 -1:255 32 0] 
r 36.187860009 _2_ RTR  --- 69 message 92 [0 ffffffff 4 800] ------- [4:255 -1:255 32 0] 
r 36.187860124 _9_ RTR  --- 69 message 92 [0 ffffffff 4 800] ------- [4:255 -1:255 32 0] 
s 36.189482565 _0_ RTR  --- 68 message 92 [0 0 0 0] ------- [0:255 -1:255 32 0] 
r 36.191362645 _3_ RTR  --- 68 message 92 [0 ffffffff 0 800] ------- [0:255 -1:255 32 0] 
r 36.191363019 _6_ RTR  --- 68 message 92 [0 ffffffff 0 800] ------- [0:255 -1:255 32 0] 
r 36.191363053 _7_ RTR  --- 68 message 92 [0 ffffffff 0 800] ------- [0:255 -1:255 32 0] 
s 36.191510240 _3_ RTR  --- 67 message 80 [0 0 0 0] ------- [3:255 -1:255 32 0] 
r 36.192854319 _0_ RTR  --- 67 message 80 [0 ffffffff 3 800] ------- [3:255 -1:255 32 0] 
r 36.192854614 _6_ RTR  --- 67 message 80 [0 ffffffff 3 800] ------- [3:255 -1:255 32 0] 
r 36.192854649 _7_ RTR  --- 67 message 80 [0 ffffffff 3 800] ------- [3:255 -1:255 32 0] 
s 36.201298273 _1_ RTR  --- 70 message 44 [0 0 0 0] ------- [1:255 -1:255 32 0] 
r 36.202654748 _9_ RTR  --- 70 message 44 [0 ffffffff 1 800] ------- [1:255 -1:255 32 0] 
r 36.202654989 _5_ RTR  --- 70 message 44 [0 ffffffff 1 800] ------- [1:255 -1:255 32 0] 
s 36.647794012 _6_ RTR  --- 72 message 56 [0 0 0 0] ------- [6:255 -1:255 32 0] 
r 36.649046054 _7_ RTR  --- 72 message 56 [0 ffffffff 6 800] ------- [6:255 -1:255 32 0] 
r 36.649046387 _3_ RTR  --- 72 message 56 [0 ffffffff 6 800] ------- [6:255 -1:255 32 0] 
r 36.649046466 _0_ RTR  --- 72 message 56 [0 ffffffff 6 800] ------- [6:255 -1:255 32 0] 
r 36.649046582 _4_ RTR  --- 72 message 56 [0 ffffffff 6 800] ------- [6:255 -1:255 32 0] 
s 36.649195884 _7_ RTR  --- 71 message 56 [0 0 0 0] ------- [7:255 -1:255 32 0] 
r 36.650487925 _6_ RTR  --- 71 message 56 [0 ffffffff 7 800] ------- [7:255 -1:255 32 0] 
r 36.650488293 _3_ RTR  --- 71 message 56 [0 ffffffff 7 800] ------- [7:255 -1:255 32 0] 
r 36.650488372 _0_ RTR  --- 71 message 56 [0 ffffffff 7 800] ------- [7:255 -1:255 32 0] 
r 36.650488430 _4_ RTR  --- 71 message 56 [0 ffffffff 7 800] ------- [7:255 -1:255 32 0] 
s 36.732235982 _9_ RTR  --- 73 message 56 [0 0 0 0] ------- [9:255 -1:255 32 0] 
r 36.733688457 _1_ RTR  --- 73 message 56 [0 ffffffff 9 800] ------- [9:255 -1:255 32 0] 
r 36.733688779 _4_ RTR  --- 73 message 56 [0 ffffffff 9 800] ------- [9:255 -1:255 32 0] 
s 36.906076439 _5_ RTR  --- 75 message 56 [0 0 0 0] ------- [5:255 -1:255 32 0] 
r 36.907628822 _8_ RTR  --- 75 message 56 [0 ffffffff 5 800] ------- [5:255 -1:255 32 0] 
r 36.907629081 _2_ RTR  --- 75 message 56 [0 ffffffff 5 800] ------- [5:255 -1:255 32 0] 
r 36.907629155 _1_ RTR  --- 75 message 56 [0 ffffffff 5 800] ------- [5:255 -1:255 32 0] 
s 36.909772469 _8_ RTR  --- 74 message 56 [0 0 0 0] ------- [8:255 -1:255 32 0] 
r 36.911344852 _5_ RTR  --- 74 message 56 [0 ffffffff 8 800] ------- [8:255 -1:255 32 0] 
r 36.911344902 _2_ RTR  --- 74 message 56 [0 ffffffff 8 800] ------- [8:255 -1:255 32 0] 
s 36.919487666 _2_ RTR  --- 76 message 32 [0 0 0 0] ------- [2:255 -1:255 32 0] 
r 36.920308100 _8_ RTR  --- 76 message 32 [0 ffffffff 2 800] ------- [2:255 -1:255 32 0] 
r 36.920308308 _5_ RTR  --- 76 message 32 [0 ffffffff 2 800] ------- [2:255 -1:255 32 0] 
r 36.920308348 _4_ RTR  --- 76 message 32 [0 ffffffff 2 800] ------- [2:255 -1:255 32 0] 
s 37.161258316 _6_ RTR  --- 77 message 68 [0 0 0 0] ------- [6:255 -1:255 32 0] 
r 37.162846358 _7_ RTR  --- 77 message 68 [0 ffffffff 6 800] ------- [6:255 -1:255 32 0] 
r 37.162846691 _3_ RTR  --- 77 message 68 [0 ffffffff 6 800] ------- [6:255 -1:255 32 0] 
r 37.162846770 _0_ RTR  --- 77 message 68 [0 ffffffff 6 800] ------- [6:255 -1:255 32 0] 
r 37.162846886 _4_ RTR  --- 77 message 68 [0 ffffffff 6 800] ------- [6:255 -1:255 32 0] 
s 37.194236988 _1_ RTR  --- 81 message 56 [0 0 0 0] ------- [1:255 -1:255 32 0] 
r 37.195269463 _9_ RTR  --- 81 message 56 [0 ffffffff 1 800] ------- [1:255 -1:255 32 0] 
r 37.195269705 _5_ RTR  --- 81 message 56 [0 ffffffff 1 800] ------- [1:255 -1:255 32 0] 
s 37.488827617 _7_ RTR  --- 82 message 56 [0 0 0 0] ------- [7:255 -1:255 32 0] 
r 37.489979658 _6_ RTR  --- 82 message 56 [0 ffffffff 7 800] ------- [7:255 -1:255 32 0] 
r 37.489980026 _3_ RTR  --- 82 message 56 [0 ffffffff 7 800] ------- [7:255 -1:255 32 0] 
r 37.489980105 _0_ RTR  --- 82 message 56 [0 ffffffff 7 800] ------- [7:255 -1:255 32 0] 
r 37.489980163 _4_ RTR  --- 82 message 56 [0 ffffffff 7 800] ------- [7:255 -1:255 32 0] 
s 37.725510920 _9_ RTR  --- 83 message 32 [0 0 0 0] ------- [9:255 -1:255 32 0] 
r 37.726411395 _1_ RTR  --- 83 message 32 [0 ffffffff 9 800] ------- [9:255 -1:255 32 0] 
r 37.726411717 _4_ RTR  --- 83 message 32 [0 ffffffff 9 800] ------- [9:255 -1:255 32 0] 
s 37.902162036 _5_ RTR  --- 85 message 44 [0 0 0 0] ------- [5:255 -1:255 32 0] 
r 37.903418420 _8_ RTR  --- 85 message 44 [0 ffffffff 5 800] ------- [5:255 -1:255 32 0] 
r 37.903418678 _2_ RTR  --- 85 message 44 [0 ffffffff 5 800] ------- [5:255 -1:255 32 0] 
r 37.903418752 _1_ RTR  --- 85 message 44 [0 ffffffff 5 800] ------- [5:255 -1:255 32 0] 
s 37.906271134 _8_ RTR  --- 84 message 56 [0 0 0 0] ------- [8:255 -1:255 32 0] 
r 37.907583518 _5_ RTR  --- 84 message 56 [0 ffffffff 8 800] ------- [8:255 -1:255 32 0] 
r 37.907583568 _2_ RTR  --- 84 message 56 [0 ffffffff 8 800] ------- [8:255 -1:255 32 0] 
s 38.200366732 _1_ RTR  --- 86 message 104 [0 0 0 0] ------- [1:255 -1:255 32 0] 
r 38.202303207 _9_ RTR  --- 86 message 104 [0 ffffffff 1 800] ------- [1:255 -1:255 32 0] 
r 38.202303448 _5_ RTR  --- 86 message 104 [0 ffffffff 1 800] ------- [1:255 -1:255 32 0] 
s 38.479788534 _6_ RTR  --- 87 message 32 [0 0 0 0] ------- [6:255 -1:255 32 0] 
r 38.480948576 _7_ RTR  --- 87 message 32 [0 ffffffff 6 800] ------- [6:255 -1:255 32 0] 
r 38.480948909 _3_ RTR  --- 87 message 32 [0 ffffffff 6 800] ------- [6:255 -1:255 32 0] 
r 38.480948988 _0_ RTR  --- 87 message 32 [0 ffffffff 6 800] ------- [6:255 -1:255 32 0] 
r 38.480949104 _4_ RTR  --- 87 message 32 [0 ffffffff 6 800] ------- [6:255 -1:255 32 0] 
s 38.490174193 _7_ RTR  --- 88 message 32 [0 0 0 0] ------- [7:255 -1:255 32 0] 
r 38.491354235 _6_ RTR  --- 88 message 32 [0 ffffffff 7 800] ------- [7:255 -1:255 32 0] 
r 38.491354603 _3_ RTR  --- 88 message 32 [0 ffffffff 7 800] ------- [7:255 -1:255 32 0] 
r 38.491354682 _0_ RTR  --- 88 message 32 [0 ffffffff 7 800] ------- [7:255 -1:255 32 0] 
r 38.491354740 _4_ RTR  --- 88 message 32 [0 ffffffff 7 800] ------- [7:255 -1:255 32 0] 
s 38.902327124 _8_ RTR  --- 89 message 104 [0 0 0 0] ------- [8:255 -1:255 32 0] 
r 38.904323508 _5_ RTR  --- 89 message 104 [0 ffffffff 8 800] ------- [8:255 -1:255 32 0] 
r 38.904323558 _2_ RTR  --- 89 message 104 [0 ffffffff 8 800] ------- [8:255 -1:255 32 0] 
s 38.906103342 _5_ RTR  --- 90 message 80 [0 0 0 0] ------- [5:255 -1:255 32 0] 
r 38.907787726 _8_ RTR  --- 90 message 80 [0 ffffffff 5 800] ------- [5:255 -1:255 32 0] 
r 38.907787985 _2_ RTR  --- 90 message 80 [0 ffffffff 5 800] ------- [5:255 -1:255 32 0] 
r 38.907788059 _1_ RTR  --- 90 message 80 [0 ffffffff 5 800] ------- [5:255 -1:255 32 0] 
s 41.968776730 _2_ RTR  --- 91 message 32 [0 0 0 0] ------- [2:255 -1:255 32 0] 