V -t * -v 1.0a5 -a 0
W -t * -x 20 -y 20
A -t * -n 1 -p 0 -o 0x7fffffff -c 30 -a 1
A -t * -h 1 -m 1073741823 -s 0
n -t 0.000000 -s 2 -x 15.696295 -y 7.622466 -U 0.000000 -V 0.000000 -T 0.000000
n -t 0.000000 -s 3 -x 10.780859 -y 13.895936 -U 0.000000 -V 0.000000 -T 0.000000
n -t 0.000000 -s 4 -x 9.003398 -y 0.103828 -U 0.000000 -V 0.000000 -T 0.000000
n -t 0.000000 -s 5 -x 5.030527 -y 8.069729 -U 0.000000 -V 0.000000 -T 0.000000
n -t 0.000000 -s 6 -x 7.927608 -y 19.306718 -U 0.000000 -V 0.000000 -T 0.000000
n -t 0.000000 -s 7 -x 8.012696 -y 9.373937 -U 0.000000 -V 0.000000 -T 0.000000
n -t 0.000000 -s 8 -x 7.751681 -y 2.499873 -U 0.000000 -V 0.000000 -T 0.000000
n -t 0.000000 -s 9 -x 15.360290 -y 0.397566 -U 0.000000 -V 0.000000 -T 0.000000
n -t 0.000000 -s 10 -x 1.893925 -y 11.200557 -U 0.000000 -V 0.000000 -T 0.000000
n -t 0.000000 -s 11 -x 7.769210 -y 17.105856 -U 0.000000 -V 0.000000 -T 0.000000
n -t 0.000000 -s 12 -x 18.119539 -y 15.083570 -U 0.000000 -V 0.000000 -T 0.000000
n -t 0.000000 -s 13 -x 9.560885 -y 9.798982 -U 0.000000 -V 0.000000 -T 0.000000
n -t 0.000000 -s 14 -x 11.490769 -y 5.362418 -U 0.000000 -V 0.000000 -T 0.000000
n -t 0.000000 -s 15 -x 6.151786 -y 13.071412 -U 0.000000 -V 0.000000 -T 0.000000
n -t 0.000000 -s 16 -x 11.222633 -y 18.791393 -U 0.000000 -V 0.000000 -T 0.000000
n -t 0.000000 -s 17 -x 6.936267 -y 17.835135 -U 0.000000 -V 0.000000 -T 0.000000
n -t 0.000000 -s 18 -x 15.119623 -y 15.499368 -U 0.000000 -V 0.000000 -T 0.000000
n -t 0.000000 -s 19 -x 17.878298 -y 0.557372 -U 0.000000 -V 0.000000 -T 0.000000
n -t 0.000000 -s 20 -x 7.758285 -y 13.488433 -U 0.000000 -V 0.000000 -T 0.000000
n -t 0.000000 -s 21 -x 0.087552 -y 11.489530 -U 0.000000 -V 0.000000 -T 0.000000
n -t 0.000000 -s 22 -x 4.528779 -y 15.190505 -U 0.000000 -V 0.000000 -T 0.000000
n -t 0.000000 -s 23 -x 6.815835 -y 13.744455 -U 0.000000 -V 0.000000 -T 0.000000
n -t 0.000000 -s 24 -x 3.060746 -y 1.961445 -U 0.000000 -V 0.000000 -T 0.000000
n -t 0.000000 -s 25 -x 6.007665 -y 10.820614 -U 0.000000 -V 0.000000 -T 0.000000
n -t 0.000000 -s 26 -x 2.052959 -y 4.083162 -U 0.000000 -V 0.000000 -T 0.000000
n -t 0.000000 -s 27 -x 5.697136 -y 11.764167 -U 0.000000 -V 0.000000 -T 0.000000
n -t 0.000000 -s 28 -x 0.356388 -y 9.820770 -U 0.000000 -V 0.000000 -T 0.000000
n -t 0.000000 -s 29 -x 17.686274 -y 13.208125 -U 0.000000 -V 0.000000 -T 0.000000
n -t 0.000000 -s 30 -x 8.953079 -y 14.398105 -U 0.000000 -V 0.000000 -T 0.000000
n -t 0.000000 -s 31 -x 8.950459 -y 10.361317 -U 0.000000 -V 0.000000 -T 0.000000
n -t 0.000000 -s 32 -x 2.647158 -y 10.782815 -U 0.000000 -V 0.000000 -T 0.000000
n -t 0.000000 -s 33 -x 6.776862 -y 18.712724 -U 0.000000 -V 0.000000 -T 0.000000
n -t 0.000000 -s 34 -x 4.743966 -y 11.829777 -U 0.000000 -V 0.000000 -T 0.000000
n -t 0.000000 -s 35 -x 3.064268 -y 1.157128 -U 0.000000 -V 0.000000 -T 0.000000
n -t 0.000000 -s 36 -x 7.852820 -y 2.347674 -U 0.000000 -V 0.000000 -T 0.000000
n -t 0.000000 -s 37 -x 17.363778 -y 13.015397 -U 0.000000 -V 0.000000 -T 0.000000
n -t 0.000000 -s 38 -x 9.778031 -y 19.364259 -U 0.000000 -V 0.000000 -T 0.000000
n -t 0.000000 -s 39 -x 15.106188 -y 9.701884 -U 0.000000 -V 0.000000 -T 0.000000
n -t 0.000000 -s 40 -x 19.567870 -y 17.191469 -U 0.000000 -V 0.000000 -T 0.000000
n -t 0.000000 -s 41 -x 17.013180 -y 0.509267 -U 0.000000 -V 0.000000 -T 0.000000
n -t 0.000000 -s 42 -x 19.257087 -y 13.853372 -U 0.000000 -V 0.000000 -T 0.000000
n -t 0.000000 -s 43 -x 13.623472 -y 9.687210 -U 0.000000 -V 0.000000 -T 0.000000
n -t 0.000000 -s 44 -x 12.932052 -y 8.997086 -U 0.000000 -V 0.000000 -T 0.000000
n -t 0.000000 -s 45 -x 14.028506 -y 17.095906 -U 0.000000 -V 0.000000 -T 0.000000
n -t 0.000000 -s 46 -x 10.886932 -y 16.672573 -U 0.000000 -V 0.000000 -T 0.000000
n -t 0.000000 -s 47 -x 15.933073 -y 7.164063 -U 0.000000 -V 0.000000 -T 0.000000
n -t 0.000000 -s 48 -x 6.404504 -y 0.502429 -U 0.000000 -V 0.000000 -T 0.000000
n -t 0.000000 -s 0 -x 0.000000 -y 0.000000 -U 0.000000 -V 0.000000 -T 0.000000
n -t 0.000000 -s 1 -x 15.000000 -y 15.000000 -U -0.000000 -V -0.000000 -T 0.000000
+ -t 11.000000000 -s 2 -d -1 -p cbr -e 100 -c 2 -a 0 -i 0 -k AGT 
- -t 11.000000000 -s 2 -d -1 -p cbr -e 100 -c 2 -a 0 -i 0 -k AGT
h -t 11.000000000 -s 2 -d -1 -p cbr -e 100 -c 2 -a 0 -i 0 -k AGT
+ -t 11.000000000 -s 3 -d -1 -p cbr -e 100 -c 2 -a 0 -i 1 -k AGT 
- -t 11.000000000 -s 3 -d -1 -p cbr -e 100 -c 2 -a 0 -i 1 -k AGT
h -t 11.000000000 -s 3 -d -1 -p cbr -e 100 -c 2 -a 0 -i 1 -k AGT
+ -t 11.000000000 -s 4 -d -1 -p cbr -e 100 -c 2 -a 0 -i 2 -k AGT 
- -t 11.000000000 -s 4 -d -1 -p cbr -e 100 -c 2 -a 0 -i 2 -k AGT
h -t 11.000000000 -s 4 -d -1 -p cbr -e 100 -c 2 -a 0 -i 2 -k AGT
+ -t 11.000000000 -s 5 -d -1 -p cbr -e 100 -c 2 -a 0 -i 3 -k AGT 
- -t 11.000000000 -s 5 -d -1 -p cbr -e 100 -c 2 -a 0 -i 3 -k AGT
h -t 11.000000000 -s 5 -d -1 -p cbr -e 100 -c 2 -a 0 -i 3 -k AGT
+ -t 11.000000000 -s 6 -d -1 -p cbr -e 100 -c 2 -a 0 -i 4 -k AGT 
- -t 11.000000000 -s 6 -d -1 -p cbr -e 100 -c 2 -a 0 -i 4 -k AGT
h -t 11.000000000 -s 6 -d -1 -p cbr -e 100 -c 2 -a 0 -i 4 -k AGT
+ -t 11.000000000 -s 7 -d -1 -p cbr -e 100 -c 2 -a 0 -i 5 -k AGT 
- -t 11.000000000 -s 7 -d -1 -p cbr -e 100 -c 2 -a 0 -i 5 -k AGT
h -t 11.000000000 -s 7 -d -1 -p cbr -e 100 -c 2 -a 0 -i 5 -k AGT
+ -t 11.000000000 -s 8 -d -1 -p cbr -e 100 -c 2 -a 0 -i 6 -k AGT 
- -t 11.000000000 -s 8 -d -1 -p cbr -e 100 -c 2 -a 0 -i 6 -k AGT
h -t 11.000000000 -s 8 -d -1 -p cbr -e 100 -c 2 -a 0 -i 6 -k AGT
+ -t 11.000000000 -s 9 -d -1 -p cbr -e 100 -c 2 -a 0 -i 7 -k AGT 
- -t 11.000000000 -s 9 -d -1 -p cbr -e 100 -c 2 -a 0 -i 7 -k AGT
h -t 11.000000000 -s 9 -d -1 -p cbr -e 100 -c 2 -a 0 -i 7 -k AGT
+ -t 11.000000000 -s 10 -d -1 -p cbr -e 100 -c 2 -a 0 -i 8 -k AGT 
- -t 11.000000000 -s 10 -d -1 -p cbr -e 100 -c 2 -a 0 -i 8 -k AGT
h -t 11.000000000 -s 10 -d -1 -p cbr -e 100 -c 2 -a 0 -i 8 -k AGT
+ -t 11.000000000 -s 11 -d -1 -p cbr -e 100 -c 2 -a 0 -i 9 -k AGT 
- -t 11.000000000 -s 11 -d -1 -p cbr -e 100 -c 2 -a 0 -i 9 -k AGT
h -t 11.000000000 -s 11 -d -1 -p cbr -e 100 -c 2 -a 0 -i 9 -k AGT
+ -t 11.000000000 -s 12 -d -1 -p cbr -e 100 -c 2 -a 0 -i 10 -k AGT 
- -t 11.000000000 -s 12 -d -1 -p cbr -e 100 -c 2 -a 0 -i 10 -k AGT
h -t 11.000000000 -s 12 -d -1 -p cbr -e 100 -c 2 -a 0 -i 10 -k AGT
+ -t 11.000000000 -s 13 -d -1 -p cbr -e 100 -c 2 -a 0 -i 11 -k AGT 
- -t 11.000000000 -s 13 -d -1 -p cbr -e 100 -c 2 -a 0 -i 11 -k AGT
h -t 11.000000000 -s 13 -d -1 -p cbr -e 100 -c 2 -a 0 -i 11 -k AGT
+ -t 11.000000000 -s 14 -d -1 -p cbr -e 100 -c 2 -a 0 -i 12 -k AGT 
- -t 11.000000000 -s 14 -d -1 -p cbr -e 100 -c 2 -a 0 -i 12 -k AGT
h -t 11.000000000 -s 14 -d -1 -p cbr -e 100 -c 2 -a 0 -i 12 -k AGT
+ -t 11.000000000 -s 15 -d -1 -p cbr -e 100 -c 2 -a 0 -i 13 -k AGT 
- -t 11.000000000 -s 15 -d -1 -p cbr -e 100 -c 2 -a 0 -i 13 -k AGT
h -t 11.000000000 -s 15 -d -1 -p cbr -e 100 -c 2 -a 0 -i 13 -k AGT
+ -t 11.000000000 -s 16 -d -1 -p cbr -e 100 -c 2 -a 0 -i 14 -k AGT 
- -t 11.000000000 -s 16 -d -1 -p cbr -e 100 -c 2 -a 0 -i 14 -k AGT
h -t 11.000000000 -s 16 -d -1 -p cbr -e 100 -c 2 -a 0 -i 14 -k AGT
+ -t 11.000000000 -s 17 -d -1 -p cbr -e 100 -c 2 -a 0 -i 15 -k AGT 
- -t 11.000000000 -s 17 -d -1 -p cbr -e 100 -c 2 -a 0 -i 15 -k AGT
h -t 11.000000000 -s 17 -d -1 -p cbr -e 100 -c 2 -a 0 -i 15 -k AGT
+ -t 11.000000000 -s 18 -d -1 -p cbr -e 100 -c 2 -a 0 -i 16 -k AGT 
- -t 11.000000000 -s 18 -d -1 -p cbr -e 100 -c 2 -a 0 -i 16 -k AGT
h -t 11.000000000 -s 18 -d -1 -p cbr -e 100 -c 2 -a 0 -i 16 -k AGT
+ -t 11.000000000 -s 19 -d -1 -p cbr -e 100 -c 2 -a 0 -i 17 -k AGT 
- -t 11.000000000 -s 19 -d -1 -p cbr -e 100 -c 2 -a 0 -i 17 -k AGT
h -t 11.000000000 -s 19 -d -1 -p cbr -e 100 -c 2 -a 0 -i 17 -k AGT
+ -t 11.000000000 -s 20 -d -1 -p cbr -e 100 -c 2 -a 0 -i 18 -k AGT 
- -t 11.000000000 -s 20 -d -1 -p cbr -e 100 -c 2 -a 0 -i 18 -k AGT
h -t 11.000000000 -s 20 -d -1 -p cbr -e 100 -c 2 -a 0 -i 18 -k AGT
+ -t 11.000000000 -s 21 -d -1 -p cbr -e 100 -c 2 -a 0 -i 19 -k AGT 
- -t 11.000000000 -s 21 -d -1 -p cbr -e 100 -c 2 -a 0 -i 19 -k AGT
h -t 11.000000000 -s 21 -d -1 -p cbr -e 100 -c 2 -a 0 -i 19 -k AGT
+ -t 11.000000000 -s 22 -d -1 -p cbr -e 100 -c 2 -a 0 -i 20 -k AGT 
- -t 11.000000000 -s 22 -d -1 -p cbr -e 100 -c 2 -a 0 -i 20 -k AGT
h -t 11.000000000 -s 22 -d -1 -p cbr -e 100 -c 2 -a 0 -i 20 -k AGT
+ -t 11.000000000 -s 23 -d -1 -p cbr -e 100 -c 2 -a 0 -i 21 -k AGT 
- -t 11.000000000 -s 23 -d -1 -p cbr -e 100 -c 2 -a 0 -i 21 -k AGT
h -t 11.000000000 -s 23 -d -1 -p cbr -e 100 -c 2 -a 0 -i 21 -k AGT
+ -t 11.000000000 -s 24 -d -1 -p cbr -e 100 -c 2 -a 0 -i 22 -k AGT 
- -t 11.000000000 -s 24 -d -1 -p cbr -e 100 -c 2 -a 0 -i 22 -k AGT
h -t 11.000000000 -s 24 -d -1 -p cbr -e 100 -c 2 -a 0 -i 22 -k AGT
+ -t 11.000000000 -s 25 -d -1 -p cbr -e 100 -c 2 -a 0 -i 23 -k AGT 
- -t 11.000000000 -s 25 -d -1 -p cbr -e 100 -c 2 -a 0 -i 23 -k AGT
h -t 11.000000000 -s 25 -d -1 -p cbr -e 100 -c 2 -a 0 -i 23 -k AGT
+ -t 11.000000000 -s 26 -d -1 -p cbr -e 100 -c 2 -a 0 -i 24 -k AGT 
- -t 11.000000000 -s 26 -d -1 -p cbr -e 100 -c 2 -a 0 -i 24 -k AGT
h -t 11.000000000 -s 26 -d -1 -p cbr -e 100 -c 2 -a 0 -i 24 -k AGT
+ -t 11.000000000 -s 27 -d -1 -p cbr -e 100 -c 2 -a 0 -i 25 -k AGT 
- -t 11.000000000 -s 27 -d -1 -p cbr -e 100 -c 2 -a 0 -i 25 -k AGT
h -t 11.000000000 -s 27 -d -1 -p cbr -e 100 -c 2 -a 0 -i 25 -k AGT
+ -t 11.000000000 -s 28 -d -1 -p cbr -e 100 -c 2 -a 0 -i 26 -k AGT 
- -t 11.000000000 -s 28 -d -1 -p cbr -e 100 -c 2 -a 0 -i 26 -k AGT
h -t 11.000000000 -s 28 -d -1 -p cbr -e 100 -c 2 -a 0 -i 26 -k AGT
+ -t 11.000000000 -s 29 -d -1 -p cbr -e 100 -c 2 -a 0 -i 27 -k AGT 
- -t 11.000000000 -s 29 -d -1 -p cbr -e 100 -c 2 -a 0 -i 27 -k AGT
h -t 11.000000000 -s 29 -d -1 -p cbr -e 100 -c 2 -a 0 -i 27 -k AGT
+ -t 11.000000000 -s 30 -d -1 -p cbr -e 100 -c 2 -a 0 -i 28 -k AGT 
- -t 11.000000000 -s 30 -d -1 -p cbr -e 100 -c 2 -a 0 -i 28 -k AGT
h -t 11.000000000 -s 30 -d -1 -p cbr -e 100 -c 2 -a 0 -i 28 -k AGT
+ -t 11.000000000 -s 31 -d -1 -p cbr -e 100 -c 2 -a 0 -i 29 -k AGT 
- -t 11.000000000 -s 31 -d -1 -p cbr -e 100 -c 2 -a 0 -i 29 -k AGT
h -t 11.000000000 -s 31 -d -1 -p cbr -e 100 -c 2 -a 0 -i 29 -k AGT
+ -t 11.000000000 -s 32 -d -1 -p cbr -e 100 -c 2 -a 0 -i 30 -k AGT 
- -t 11.000000000 -s 32 -d -1 -p cbr -e 100 -c 2 -a 0 -i 30 -k AGT
h -t 11.000000000 -s 32 -d -1 -p cbr -e 100 -c 2 -a 0 -i 30 -k AGT
+ -t 11.000000000 -s 33 -d -1 -p cbr -e 100 -c 2 -a 0 -i 31 -k AGT 
- -t 11.000000000 -s 33 -d -1 -p cbr -e 100 -c 2 -a 0 -i 31 -k AGT
h -t 11.000000000 -s 33 -d -1 -p cbr -e 100 -c 2 -a 0 -i 31 -k AGT
+ -t 11.000000000 -s 34 -d -1 -p cbr -e 100 -c 2 -a 0 -i 32 -k AGT 
- -t 11.000000000 -s 34 -d -1 -p cbr -e 100 -c 2 -a 0 -i 32 -k AGT
h -t 11.000000000 -s 34 -d -1 -p cbr -e 100 -c 2 -a 0 -i 32 -k AGT
+ -t 11.000000000 -s 35 -d -1 -p cbr -e 100 -c 2 -a 0 -i 33 -k AGT 
- -t 11.000000000 -s 35 -d -1 -p cbr -e 100 -c 2 -a 0 -i 33 -k AGT
h -t 11.000000000 -s 35 -d -1 -p cbr -e 100 -c 2 -a 0 -i 33 -k AGT
+ -t 11.000000000 -s 36 -d -1 -p cbr -e 100 -c 2 -a 0 -i 34 -k AGT 
- -t 11.000000000 -s 36 -d -1 -p cbr -e 100 -c 2 -a 0 -i 34 -k AGT
h -t 11.000000000 -s 36 -d -1 -p cbr -e 100 -c 2 -a 0 -i 34 -k AGT
+ -t 11.000000000 -s 37 -d -1 -p cbr -e 100 -c 2 -a 0 -i 35 -k AGT 
- -t 11.000000000 -s 37 -d -1 -p cbr -e 100 -c 2 -a 0 -i 35 -k AGT
h -t 11.000000000 -s 37 -d -1 -p cbr -e 100 -c 2 -a 0 -i 35 -k AGT
+ -t 11.000000000 -s 38 -d -1 -p cbr -e 100 -c 2 -a 0 -i 36 -k AGT 
- -t 11.000000000 -s 38 -d -1 -p cbr -e 100 -c 2 -a 0 -i 36 -k AGT
h -t 11.000000000 -s 38 -d -1 -p cbr -e 100 -c 2 -a 0 -i 36 -k AGT
+ -t 11.000000000 -s 39 -d -1 -p cbr -e 100 -c 2 -a 0 -i 37 -k AGT 
- -t 11.000000000 -s 39 -d -1 -p cbr -e 100 -c 2 -a 0 -i 37 -k AGT
h -t 11.000000000 -s 39 -d -1 -p cbr -e 100 -c 2 -a 0 -i 37 -k AGT
+ -t 11.000000000 -s 40 -d -1 -p cbr -e 100 -c 2 -a 0 -i 38 -k AGT 
- -t 11.000000000 -s 40 -d -1 -p cbr -e 100 -c 2 -a 0 -i 38 -k AGT
h -t 11.000000000 -s 40 -d -1 -p cbr -e 100 -c 2 -a 0 -i 38 -k AGT
+ -t 11.000000000 -s 41 -d -1 -p cbr -e 100 -c 2 -a 0 -i 39 -k AGT 
- -t 11.000000000 -s 41 -d -1 -p cbr -e 100 -c 2 -a 0 -i 39 -k AGT
h -t 11.000000000 -s 41 -d -1 -p cbr -e 100 -c 2 -a 0 -i 39 -k AGT
+ -t 11.000000000 -s 42 -d -1 -p cbr -e 100 -c 2 -a 0 -i 40 -k AGT 
- -t 11.000000000 -s 42 -d -1 -p cbr -e 100 -c 2 -a 0 -i 40 -k AGT
h -t 11.000000000 -s 42 -d -1 -p cbr -e 100 -c 2 -a 0 -i 40 -k AGT
+ -t 11.000000000 -s 43 -d -1 -p cbr -e 100 -c 2 -a 0 -i 41 -k AGT 
- -t 11.000000000 -s 43 -d -1 -p cbr -e 100 -c 2 -a 0 -i 41 -k AGT
h -t 11.000000000 -s 43 -d -1 -p cbr -e 100 -c 2 -a 0 -i 41 -k AGT
+ -t 11.000000000 -s 44 -d -1 -p cbr -e 100 -c 2 -a 0 -i 42 -k AGT 
- -t 11.000000000 -s 44 -d -1 -p cbr -e 100 -c 2 -a 0 -i 42 -k AGT
h -t 11.000000000 -s 44 -d -1 -p cbr -e 100 -c 2 -a 0 -i 42 -k AGT
+ -t 11.000000000 -s 45 -d -1 -p cbr -e 100 -c 2 -a 0 -i 43 -k AGT 
- -t 11.000000000 -s 45 -d -1 -p cbr -e 100 -c 2 -a 0 -i 43 -k AGT
h -t 11.000000000 -s 45 -d -1 -p cbr -e 100 -c 2 -a 0 -i 43 -k AGT
+ -t 11.000000000 -s 46 -d -1 -p cbr -e 100 -c 2 -a 0 -i 44 -k AGT 
- -t 11.000000000 -s 46 -d -1 -p cbr -e 100 -c 2 -a 0 -i 44 -k AGT
h -t 11.000000000 -s 46 -d -1 -p cbr -e 100 -c 2 -a 0 -i 44 -k AGT
+ -t 11.000000000 -s 47 -d -1 -p cbr -e 100 -c 2 -a 0 -i 45 -k AGT 
- -t 11.000000000 -s 47 -d -1 -p cbr -e 100 -c 2 -a 0 -i 45 -k AGT
h -t 11.000000000 -s 47 -d -1 -p cbr -e 100 -c 2 -a 0 -i 45 -k AGT
+ -t 11.000000000 -s 48 -d -1 -p cbr -e 100 -c 2 -a 0 -i 46 -k AGT 
- -t 11.000000000 -s 48 -d -1 -p cbr -e 100 -c 2 -a 0 -i 46 -k AGT
h -t 11.000000000 -s 48 -d -1 -p cbr -e 100 -c 2 -a 0 -i 46 -k AGT
+ -t 11.000000000 -s 2 -d -1 -p AODV -e 48 -c 2 -a 0 -i 0 -k RTR 
- -t 11.000000000 -s 2 -d -1 -p AODV -e 48 -c 2 -a 0 -i 0 -k RTR
h -t 11.000000000 -s 2 -d -1 -p AODV -e 48 -c 2 -a 0 -i 0 -k RTR
+ -t 11.000000000 -s 3 -d -1 -p AODV -e 48 -c 2 -a 0 -i 0 -k RTR 
- -t 11.000000000 -s 3 -d -1 -p AODV -e 48 -c 2 -a 0 -i 0 -k RTR
h -t 11.000000000 -s 3 -d -1 -p AODV -e 48 -c 2 -a 0 -i 0 -k RTR
+ -t 11.000000000 -s 4 -d -1 -p AODV -e 48 -c 2 -a 0 -i 0 -k RTR 
- -t 11.000000000 -s 4 -d -1 -p AODV -e 48 -c 2 -a 0 -i 0 -k RTR
h -t 11.000000000 -s 4 -d -1 -p AODV -e 48 -c 2 -a 0 -i 0 -k RTR
+ -t 11.000000000 -s 5 -d -1 -p AODV -e 48 -c 2 -a 0 -i 0 -k RTR 
- -t 11.000000000 -s 5 -d -1 -p AODV -e 48 -c 2 -a 0 -i 0 -k RTR
h -t 11.000000000 -s 5 -d -1 -p AODV -e 48 -c 2 -a 0 -i 0 -k RTR
+ -t 11.000000000 -s 6 -d -1 -p AODV -e 48 -c 2 -a 0 -i 0 -k RTR 
- -t 11.000000000 -s 6 -d -1 -p AODV -e 48 -c 2 -a 0 -i 0 -k RTR
h -t 11.000000000 -s 6 -d -1 -p AODV -e 48 -c 2 -a 0 -i 0 -k RTR
+ -t 11.000000000 -s 7 -d -1 -p AODV -e 48 -c 2 -a 0 -i 0 -k RTR 
- -t 11.000000000 -s 7 -d -1 -p AODV -e 48 -c 2 -a 0 -i 0 -k RTR
h -t 11.000000000 -s 7 -d -1 -p AODV -e 48 -c 2 -a 0 -i 0 -k RTR
+ -t 11.000000000 -s 8 -d -1 -p AODV -e 48 -c 2 -a 0 -i 0 -k RTR 
- -t 11.000000000 -s 8 -d -1 -p AODV -e 48 -c 2 -a 0 -i 0 -k RTR
h -t 11.000000000 -s 8 -d -1 -p AODV -e 48 -c 2 -a 0 -i 0 -k RTR
+ -t 11.000000000 -s 9 -d -1 -p AODV -e 48 -c 2 -a 0 -i 0 -k RTR 
- -t 11.000000000 -s 9 -d -1 -p AODV -e 48 -c 2 -a 0 -i 0 -k RTR
h -t 11.000000000 -s 9 -d -1 -p AODV -e 48 -c 2 -a 0 -i 0 -k RTR
+ -t 11.000000000 -s 10 -d -1 -p AODV -e 48 -c 2 -a 0 -i 0 -k RTR 
- -t 11.000000000 -s 10 -d -1 -p AODV -e 48 -c 2 -a 0 -i 0 -k RTR
h -t 11.000000000 -s 10 -d -1 -p AODV -e 48 -c 2 -a 0 -i 0 -k RTR
+ -t 11.000000000 -s 11 -d -1 -p AODV -e 48 -c 2 -a 0 -i 0 -k RTR 
- -t 11.000000000 -s 11 -d -1 -p AODV -e 48 -c 2 -a 0 -i 0 -k RTR
h -t 11.000000000 -s 11 -d -1 -p AODV -e 48 -c 2 -a 0 -i 0 -k RTR
+ -t 11.000000000 -s 12 -d -1 -p AODV -e 48 -c 2 -a 0 -i 0 -k RTR 
- -t 11.000000000 -s 12 -d -1 -p AODV -e 48 -c 2 -a 0 -i 0 -k RTR
h -t 11.000000000 -s 12 -d -1 -p AODV -e 48 -c 2 -a 0 -i 0 -k RTR
+ -t 11.000000000 -s 13 -d -1 -p AODV -e 48 -c 2 -a 0 -i 0 -k RTR 
- -t 11.000000000 -s 13 -d -1 -p AODV -e 48 -c 2 -a 0 -i 0 -k RTR
h -t 11.000000000 -s 13 -d -1 -p AODV -e 48 -c 2 -a 0 -i 0 -k RTR
+ -t 11.000000000 -s 14 -d -1 -p AODV -e 48 -c 2 -a 0 -i 0 -k RTR 
- -t 11.000000000 -s 14 -d -1 -p AODV -e 48 -c 2 -a 0 -i 0 -k RTR
h -t 11.000000000 -s 14 -d -1 -p AODV -e 48 -c 2 -a 0 -i 0 -k RTR
+ -t 11.000000000 -s 15 -d -1 -p AODV -e 48 -c 2 -a 0 -i 0 -k RTR 
- -t 11.000000000 -s 15 -d -1 -p AODV -e 48 -c 2 -a 0 -i 0 -k RTR
h -t 11.000000000 -s 15 -d -1 -p AODV -e 48 -c 2 -a 0 -i 0 -k RTR
+ -t 11.000000000 -s 16 -d -1 -p AODV -e 48 -c 2 -a 0 -i 0 -k RTR 
- -t 11.000000000 -s 16 -d -1 -p AODV -e 48 -c 2 -a 0 -i 0 -k RTR
h -t 11.000000000 -s 16 -d -1 -p AODV -e 48 -c 2 -a 0 -i 0 -k RTR
+ -t 11.000000000 -s 17 -d -1 -p AODV -e 48 -c 2 -a 0 -i 0 -k RTR 
- -t 11.000000000 -s 17 -d -1 -p AODV -e 48 -c 2 -a 0 -i 0 -k RTR
h -t 11.000000000 -s 17 -d -1 -p AODV -e 48 -c 2 -a 0 -i 0 -k RTR
+ -t 11.000000000 -s 18 -d -1 -p AODV -e 48 -c 2 -a 0 -i 0 -k RTR 
- -t 11.000000000 -s 18 -d -1 -p AODV -e 48 -c 2 -a 0 -i 0 -k RTR
h -t 11.000000000 -s 18 -d -1 -p AODV -e 48 -c 2 -a 0 -i 0 -k RTR
+ -t 11.000000000 -s 19 -d -1 -p AODV -e 48 -c 2 -a 0 -i 0 -k RTR 
- -t 11.000000000 -s 19 -d -1 -p AODV -e 48 -c 2 -a 0 -i 0 -k RTR
h -t 11.000000000 -s 19 -d -1 -p AODV -e 48 -c 2 -a 0 -i 0 -k RTR
+ -t 11.000000000 -s 20 -d -1 -p AODV -e 48 -c 2 -a 0 -i 0 -k RTR 
- -t 11.000000000 -s 20 -d -1 -p AODV -e 48 -c 2 -a 0 -i 0 -k RTR
h -t 11.000000000 -s 20 -d -1 -p AODV -e 48 -c 2 -a 0 -i 0 -k RTR
+ -t 11.000000000 -s 21 -d -1 -p AODV -e 48 -c 2 -a 0 -i 0 -k RTR 
- -t 11.000000000 -s 21 -d -1 -p AODV -e 48 -c 2 -a 0 -i 0 -k RTR
h -t 11.000000000 -s 21 -d -1 -p AODV -e 48 -c 2 -a 0 -i 0 -k RTR
+ -t 11.000000000 -s 22 -d -1 -p AODV -e 48 -c 2 -a 0 -i 0 -k RTR 
- -t 11.000000000 -s 22 -d -1 -p AODV -e 48 -c 2 -a 0 -i 0 -k RTR
h -t 11.000000000 -s 22 -d -1 -p AODV -e 48 -c 2 -a 0 -i 0 -k RTR
+ -t 11.000000000 -s 23 -d -1 -p AODV -e 48 -c 2 -a 0 -i 0 -k RTR 
- -t 11.000000000 -s 23 -d -1 -p AODV -e 48 -c 2 -a 0 -i 0 -k RTR
h -t 11.000000000 -s 23 -d -1 -p AODV -e 48 -c 2 -a 0 -i 0 -k RTR
+ -t 11.000000000 -s 24 -d -1 -p AODV -e 48 -c 2 -a 0 -i 0 -k RTR 
- -t 11.000000000 -s 24 -d -1 -p AODV -e 48 -c 2 -a 0 -i 0 -k RTR
h -t 11.000000000 -s 24 -d -1 -p AODV -e 48 -c 2 -a 0 -i 0 -k RTR
+ -t 11.000000000 -s 25 -d -1 -p AODV -e 48 -c 2 -a 0 -i 0 -k RTR 
- -t 11.000000000 -s 25 -d -1 -p AODV -e 48 -c 2 -a 0 -i 0 -k RTR
h -t 11.000000000 -s 25 -d -1 -p AODV -e 48 -c 2 -a 0 -i 0 -k RTR
+ -t 11.000000000 -s 26 -d -1 -p AODV -e 48 -c 2 -a 0 -i 0 -k RTR 
- -t 11.000000000 -s 26 -d -1 -p AODV -e 48 -c 2 -a 0 -i 0 -k RTR
h -t 11.000000000 -s 26 -d -1 -p AODV -e 48 -c 2 -a 0 -i 0 -k RTR
+ -t 11.000000000 -s 27 -d -1 -p AODV -e 48 -c 2 -a 0 -i 0 -k RTR 
- -t 11.000000000 -s 27 -d -1 -p AODV -e 48 -c 2 -a 0 -i 0 -k RTR
h -t 11.000000000 -s 27 -d -1 -p AODV -e 48 -c 2 -a 0 -i 0 -k RTR
+ -t 11.000000000 -s 28 -d -1 -p AODV -e 48 -c 2 -a 0 -i 0 -k RTR 
- -t 11.000000000 -s 28 -d -1 -p AODV -e 48 -c 2 -a 0 -i 0 -k RTR
h -t 11.000000000 -s 28 -d -1 -p AODV -e 48 -c 2 -a 0 -i 0 -k RTR
+ -t 11.000000000 -s 29 -d -1 -p AODV -e 48 -c 2 -a 0 -i 0 -k RTR 
- -t 11.000000000 -s 29 -d -1 -p AODV -e 48 -c 2 -a 0 -i 0 -k RTR
h -t 11.000000000 -s 29 -d -1 -p AODV -e 48 -c 2 -a 0 -i 0 -k RTR
+ -t 11.000000000 -s 30 -d -1 -p AODV -e 48 -c 2 -a 0 -i 0 -k RTR 
- -t 11.000000000 -s 30 -d -1 -p AODV -e 48 -c 2 -a 0 -i 0 -k RTR
h -t 11.000000000 -s 30 -d -1 -p AODV -e 48 -c 2 -a 0 -i 0 -k RTR
+ -t 11.000000000 -s 31 -d -1 -p AODV -e 48 -c 2 -a 0 -i 0 -k RTR 
- -t 11.000000000 -s 31 -d -1 -p AODV -e 48 -c 2 -a 0 -i 0 -k RTR
h -t 11.000000000 -s 31 -d -1 -p AODV -e 48 -c 2 -a 0 -i 0 -k RTR
+ -t 11.000000000 -s 32 -d -1 -p AODV -e 48 -c 2 -a 0 -i 0 -k RTR 
- -t 11.000000000 -s 32 -d -1 -p AODV -e 48 -c 2 -a 0 -i 0 -k RTR
h -t 11.000000000 -s 32 -d -1 -p AODV -e 48 -c 2 -a 0 -i 0 -k RTR
+ -t 11.000000000 -s 33 -d -1 -p AODV -e 48 -c 2 -a 0 -i 0 -k RTR 
- -t 11.000000000 -s 33 -d -1 -p AODV -e 48 -c 2 -a 0 -i 0 -k RTR
h -t 11.000000000 -s 33 -d -1 -p AODV -e 48 -c 2 -a 0 -i 0 -k RTR
+ -t 11.000000000 -s 34 -d -1 -p AODV -e 48 -c 2 -a 0 -i 0 -k RTR 
- -t 11.000000000 -s 34 -d -1 -p AODV -e 48 -c 2 -a 0 -i 0 -k RTR
h -t 11.000000000 -s 34 -d -1 -p AODV -e 48 -c 2 -a 0 -i 0 -k RTR
+ -t 11.000000000 -s 35 -d -1 -p AODV -e 48 -c 2 -a 0 -i 0 -k RTR 
- -t 11.000000000 -s 35 -d -1 -p AODV -e 48 -c 2 -a 0 -i 0 -k RTR
h -t 11.000000000 -s 35 -d -1 -p AODV -e 48 -c 2 -a 0 -i 0 -k RTR
+ -t 11.000000000 -s 36 -d -1 -p AODV -e 48 -c 2 -a 0 -i 0 -k RTR 
- -t 11.000000000 -s 36 -d -1 -p AODV -e 48 -c 2 -a 0 -i 0 -k RTR
h -t 11.000000000 -s 36 -d -1 -p AODV -e 48 -c 2 -a 0 -i 0 -k RTR
+ -t 11.000000000 -s 37 -d