Sconfig 0.00000 tap: on snoop: rts? on errs? on
Sconfig 0.00000 salvage: on !bd replies? on
Sconfig 0.00000 grat error: on grat reply: on
Sconfig 0.00000 $reply for props: on ring 0 search: on
Sconfig 0.00000 using MOBICACHE
s -t 0.000000000 -Hs 36 -Hd -2 -Ni 36 -Nx 2.00 -Ny 2.00 -Nz 0.00 -Ne -1.000000 -Nl AGT -Nw --- -Ma 0 -Md 0 -Ms 0 -Mt 0 -Is 36.0 -Id 37.0 -It cbr -Il 512 -If 0 -Ii 0 -Iv 32 -Pn cbr -Pi 0 -Pf 0 -Po 0 
r -t 0.000000000 -Hs 36 -Hd -2 -Ni 36 -Nx 2.00 -Ny 2.00 -Nz 0.00 -Ne -1.000000 -Nl RTR -Nw --- -Ma 0 -Md 0 -Ms 0 -Mt 0 -Is 36.0 -Id 37.0 -It cbr -Il 512 -If 0 -Ii 0 -Iv 32 -Pn cbr -Pi 0 -Pf 0 -Po 0 
s -t 0.001873652 -Hs 36 -Hd -1 -Ni 36 -Nx 2.00 -Ny 2.00 -Nz 0.00 -Ne -1.000000 -Nl RTR -Nw --- -Ma 0 -Md 0 -Ms 0 -Mt 0 -Is 36.255 -Id 37.255 -It DSR -Il 32 -If 0 -Ii 1 -Iv 32 -P dsr -Ph 1 -Pq 1 -Ps 1 -Pp 0 -Pn 1 -Pl 0 -Pe 0->0 -Pw 0 -Pm 0 -Pc 0 -Pb 0->0 
r -t 0.003214166 -Hs 0 -Hd -1 -Ni 0 -Nx 100.00 -Ny 120.71 -Nz 0.00 -Ne -1.000000 -Nl RTR -Nw --- -Ma 0 -Md ffffffff -Ms 24 -Mt 800 -Is 36.255 -Id 37.255 -It DSR -Il 32 -If 0 -Ii 1 -Iv 32 -P dsr -Ph 1 -Pq 1 -Ps 1 -Pp 0 -Pn 1 -Pl 0 -Pe 0->0 -Pw 0 -Pm 0 -Pc 0 -Pb 0->0 
r -t 0.003214207 -Hs 6 -Hd -1 -Ni 6 -Nx 64.64 -Ny 156.07 -Nz 0.00 -Ne -1.000000 -Nl RTR -Nw --- -Ma 0 -Md ffffffff -Ms 24 -Mt 800 -Is 36.255 -Id 37.255 -It DSR -Il 32 -If 0 -Ii 1 -Iv 32 -P dsr -Ph 1 -Pq 1 -Ps 1 -Pp 0 -Pn 1 -Pl 0 -Pe 0->0 -Pw 0 -Pm 0 -Pc 0 -Pb 0->0 
r -t 0.003214290 -Hs 12 -Hd -1 -Ni 12 -Nx 29.29 -Ny 191.42 -Nz 0.00 -Ne -1.000000 -Nl RTR -Nw --- -Ma 0 -Md ffffffff -Ms 24 -Mt 800 -Is 36.255 -Id 37.255 -It DSR -Il 32 -If 0 -Ii 1 -Iv 32 -P dsr -Ph 1 -Pq 1 -Ps 1 -Pp 0 -Pn 1 -Pl 0 -Pe 0->0 -Pw 0 -Pm 0 -Pc 0 -Pb 0->0 
r -t 0.003214332 -Hs 1 -Hd -1 -Ni 1 -Nx 135.36 -Ny 156.07 -Nz 0.00 -Ne -1.000000 -Nl RTR -Nw --- -Ma 0 -Md ffffffff -Ms 24 -Mt 800 -Is 36.255 -Id 37.255 -It DSR -Il 32 -If 0 -Ii 1 -Iv 32 -P dsr -Ph 1 -Pq 1 -Ps 1 -Pp 0 -Pn 1 -Pl 0 -Pe 0->0 -Pw 0 -Pm 0 -Pc 0 -Pb 0->0 
r -t 0.003214363 -Hs 7 -Hd -1 -Ni 7 -Nx 100.00 -Ny 191.42 -Nz 0.00 -Ne -1.000000 -Nl RTR -Nw --- -Ma 0 -Md ffffffff -Ms 24 -Mt 800 -Is 36.255 -Id 37.255 -It DSR -Il 32 -If 0 -Ii 1 -Iv 32 -P dsr -Ph 1 -Pq 1 -Ps 1 -Pp 0 -Pn 1 -Pl 0 -Pe 0->0 -Pw 0 -Pm 0 -Pc 0 -Pb 0->0 
r -t 0.003214402 -Hs 18 -Hd -1 -Ni 18 -Nx -6.07 -Ny 226.78 -Nz 0.00 -Ne -1.000000 -Nl RTR -Nw --- -Ma 0 -Md ffffffff -Ms 24 -Mt 800 -Is 36.255 -Id 37.255 -It DSR -Il 32 -If 0 -Ii 1 -Iv 32 -P dsr -Ph 1 -Pq 1 -Ps 1 -Pp 0 -Pn 1 -Pl 0 -Pe 0->0 -Pw 0 -Pm 0 -Pc 0 -Pb 0->0 
r -t 0.003214430 -Hs 13 -Hd -1 -Ni 13 -Nx 64.64 -Ny 226.78 -Nz 0.00 -Ne -1.000000 -Nl RTR -Nw --- -Ma 0 -Md ffffffff -Ms 24 -Mt 800 -Is 36.255 -Id 37.255 -It DSR -Il 32 -If 0 -Ii 1 -Iv 32 -P dsr -Ph 1 -Pq 1 -Ps 1 -Pp 0 -Pn 1 -Pl 0 -Pe 0->0 -Pw 0 -Pm 0 -Pc 0 -Pb 0->0 
s -t 0.036632582 -Hs 36 -Hd -1 -Ni 36 -Nx 2.00 -Ny 2.00 -Nz 0.00 -Ne -1.000000 -Nl RTR -Nw --- -Ma 0 -Md 0 -Ms 0 -Mt 0 -Is 36.255 -Id 37.255 -It DSR -Il 32 -If 0 -Ii 2 -Iv 32 -P dsr -Ph 1 -Pq 1 -Ps 2 -Pp 0 -Pn 2 -Pl 0 -Pe 0->0 -Pw 0 -Pm 0 -Pc 0 -Pb 0->0 
r -t 0.037673095 -Hs 0 -Hd -1 -Ni 0 -Nx 100.00 -Ny 120.71 -Nz 0.00 -Ne -1.000000 -Nl RTR -Nw --- -Ma 0 -Md ffffffff -Ms 24 -Mt 800 -Is 36.255 -Id 37.255 -It DSR -Il 32 -If 0 -Ii 2 -Iv 32 -P dsr -Ph 1 -Pq 1 -Ps 2 -Pp 0 -Pn 2 -Pl 0 -Pe 0->0 -Pw 0 -Pm 0 -Pc 0 -Pb 0->0 
r -t 0.037673136 -Hs 6 -Hd -1 -Ni 6 -Nx 64.64 -Ny 156.07 -Nz 0.00 -Ne -1.000000 -Nl RTR -Nw --- -Ma 0 -Md ffffffff -Ms 24 -Mt 800 -Is 36.255 -Id 37.255 -It DSR -Il 32 -If 0 -Ii 2 -Iv 32 -P dsr -Ph 1 -Pq 1 -Ps 2 -Pp 0 -Pn 2 -Pl 0 -Pe 0->0 -Pw 0 -Pm 0 -Pc 0 -Pb 0->0 
r -t 0.037673220 -Hs 12 -Hd -1 -Ni 12 -Nx 29.29 -Ny 191.42 -Nz 0.00 -Ne -1.000000 -Nl RTR -Nw --- -Ma 0 -Md ffffffff -Ms 24 -Mt 800 -Is 36.255 -Id 37.255 -It DSR -Il 32 -If 0 -Ii 2 -Iv 32 -P dsr -Ph 1 -Pq 1 -Ps 2 -Pp 0 -Pn 2 -Pl 0 -Pe 0->0 -Pw 0 -Pm 0 -Pc 0 -Pb 0->0 
r -t 0.037673261 -Hs 1 -Hd -1 -Ni 1 -Nx 135.36 -Ny 156.07 -Nz 0.00 -Ne -1.000000 -Nl RTR -Nw --- -Ma 0 -Md ffffffff -Ms 24 -Mt 800 -Is 36.255 -Id 37.255 -It DSR -Il 32 -If 0 -Ii 2 -Iv 32 -P dsr -Ph 1 -Pq 1 -Ps 2 -Pp 0 -Pn 2 -Pl 0 -Pe 0->0 -Pw 0 -Pm 0 -Pc 0 -Pb 0->0 
r -t 0.037673293 -Hs 7 -Hd -1 -Ni 7 -Nx 100.00 -Ny 191.42 -Nz 0.00 -Ne -1.000000 -Nl RTR -Nw --- -Ma 0 -Md ffffffff -Ms 24 -Mt 800 -Is 36.255 -Id 37.255 -It DSR -Il 32 -If 0 -Ii 2 -Iv 32 -P dsr -Ph 1 -Pq 1 -Ps 2 -Pp 0 -Pn 2 -Pl 0 -Pe 0->0 -Pw 0 -Pm 0 -Pc 0 -Pb 0->0 
r -t 0.037673331 -Hs 18 -Hd -1 -Ni 18 -Nx -6.07 -Ny 226.78 -Nz 0.00 -Ne -1.000000 -Nl RTR -Nw --- -Ma 0 -Md ffffffff -Ms 24 -Mt 800 -Is 36.255 -Id 37.255 -It DSR -Il 32 -If 0 -Ii 2 -Iv 32 -P dsr -Ph 1 -Pq 1 -Ps 2 -Pp 0 -Pn 2 -Pl 0 -Pe 0->0 -Pw 0 -Pm 0 -Pc 0 -Pb 0->0 
r -t 0.037673360 -Hs 13 -Hd -1 -Ni 13 -Nx 64.64 -Ny 226.78 -Nz 0.00 -Ne -1.000000 -Nl RTR -Nw --- -Ma 0 -Md ffffffff -Ms 24 -Mt 800 -Is 36.255 -Id 37.255 -It DSR -Il 32 -If 0 -Ii 2 -Iv 32 -P dsr -Ph 1 -Pq 1 -Ps 2 -Pp 0 -Pn 2 -Pl 0 -Pe 0->0 -Pw 0 -Pm 0 -Pc 0 -Pb 0->0 
f -t 0.037948670 -Hs 0 -Hd -1 -Ni 0 -Nx 100.00 -Ny 120.71 -Nz 0.00 -Ne -1.000000 -Nl RTR -Nw --- -Ma 0 -Md ffffffff -Ms 24 -Mt 800 -Is 36.255 -Id 37.255 -It DSR -Il 48 -If 0 -Ii 2 -Iv 32 -P dsr -Ph 2 -Pq 1 -Ps 2 -Pp 0 -Pn 2 -Pl 0 -Pe 0->0 -Pw 0 -Pm 0 -Pc 0 -Pb 0->0 
r -t 0.039136836 -Hs 6 -Hd -1 -Ni 6 -Nx 64.64 -Ny 156.07 -Nz 0.00 -Ne -1.000000 -Nl RTR -Nw --- -Ma 0 -Md ffffffff -Ms 0 -Mt 800 -Is 36.255 -Id 37.255 -It DSR -Il 48 -If 0 -Ii 2 -Iv 32 -P dsr -Ph 2 -Pq 1 -Ps 2 -Pp 0 -Pn 2 -Pl 0 -Pe 0->0 -Pw 0 -Pm 0 -Pc 0 -Pb 0->0 
r -t 0.039136836 -Hs 1 -Hd -1 -Ni 1 -Nx 135.36 -Ny 156.07 -Nz 0.00 -Ne -1.000000 -Nl RTR -Nw --- -Ma 0 -Md ffffffff -Ms 0 -Mt 800 -Is 36.255 -Id 37.255 -It DSR -Il 48 -If 0 -Ii 2 -Iv 32 -P dsr -Ph 2 -Pq 1 -Ps 2 -Pp 0 -Pn 2 -Pl 0 -Pe 0->0 -Pw 0 -Pm 0 -Pc 0 -Pb 0->0 
r -t 0.039136905 -Hs 7 -Hd -1 -Ni 7 -Nx 100.00 -Ny 191.42 -Nz 0.00 -Ne -1.000000 -Nl RTR -Nw --- -Ma 0 -Md ffffffff -Ms 0 -Mt 800 -Is 36.255 -Id 37.255 -It DSR -Il 48 -If 0 -Ii 2 -Iv 32 -P dsr -Ph 2 -Pq 1 -Ps 2 -Pp 0 -Pn 2 -Pl 0 -Pe 0->0 -Pw 0 -Pm 0 -Pc 0 -Pb 0->0 
r -t 0.039137003 -Hs 12 -Hd -1 -Ni 12 -Nx 29.29 -Ny 191.42 -Nz 0.00 -Ne -1.000000 -Nl RTR -Nw --- -Ma 0 -Md ffffffff -Ms 0 -Mt 800 -Is 36.255 -Id 37.255 -It DSR -Il 48 -If 0 -Ii 2 -Iv 32 -P dsr -Ph 2 -Pq 1 -Ps 2 -Pp 0 -Pn 2 -Pl 0 -Pe 0->0 -Pw 0 -Pm 0 -Pc 0 -Pb 0->0 
r -t 0.039137003 -Hs 2 -Hd -1 -Ni 2 -Nx 170.71 -Ny 191.42 -Nz 0.00 -Ne -1.000000 -Nl RTR -Nw --- -Ma 0 -Md ffffffff -Ms 0 -Mt 800 -Is 36.255 -Id 37.255 -It DSR -Il 48 -If 0 -Ii 2 -Iv 32 -P dsr -Ph 2 -Pq 1 -Ps 2 -Pp 0 -Pn 2 -Pl 0 -Pe 0->0 -Pw 0 -Pm 0 -Pc 0 -Pb 0->0 
r -t 0.039137042 -Hs 13 -Hd -1 -Ni 13 -Nx 64.64 -Ny 226.78 -Nz 0.00 -Ne -1.000000 -Nl RTR -Nw --- -Ma 0 -Md ffffffff -Ms 0 -Mt 800 -Is 36.255 -Id 37.255 -It DSR -Il 48 -If 0 -Ii 2 -Iv 32 -P dsr -Ph 2 -Pq 1 -Ps 2 -Pp 0 -Pn 2 -Pl 0 -Pe 0->0 -Pw 0 -Pm 0 -Pc 0 -Pb 0->0 
r -t 0.039137042 -Hs 8 -Hd -1 -Ni 8 -Nx 135.36 -Ny 226.78 -Nz 0.00 -Ne -1.000000 -Nl RTR -Nw --- -Ma 0 -Md ffffffff -Ms 0 -Mt 800 -Is 36.255 -Id 37.255 -It DSR -Il 48 -If 0 -Ii 2 -Iv 32 -P dsr -Ph 2 -Pq 1 -Ps 2 -Pp 0 -Pn 2 -Pl 0 -Pe 0->0 -Pw 0 -Pm 0 -Pc 0 -Pb 0->0 
r -t 0.039137132 -Hs 37 -Hd -1 -Ni 37 -Nx 150.00 -Ny 250.00 -Nz 0.00 -Ne -1.000000 -Nl RTR -Nw --- -Ma 0 -Md ffffffff -Ms 0 -Mt 800 -Is 36.255 -Id 37.255 -It DSR -Il 48 -If 0 -Ii 2 -Iv 32 -P dsr -Ph 2 -Pq 1 -Ps 2 -Pp 0 -Pn 2 -Pl 0 -Pe 0->0 -Pw 0 -Pm 0 -Pc 0 -Pb 0->0 
r -t 0.039137141 -Hs 14 -Hd -1 -Ni 14 -Nx 100.00 -Ny 262.13 -Nz 0.00 -Ne -1.000000 -Nl RTR -Nw --- -Ma 0 -Md ffffffff -Ms 0 -Mt 800 -Is 36.255 -Id 37.255 -It DSR -Il 48 -If 0 -Ii 2 -Iv 32 -P dsr -Ph 2 -Pq 1 -Ps 2 -Pp 0 -Pn 2 -Pl 0 -Pe 0->0 -Pw 0 -Pm 0 -Pc 0 -Pb 0->0 
r -t 0.039137170 -Hs 18 -Hd -1 -Ni 18 -Nx -6.07 -Ny 226.78 -Nz 0.00 -Ne -1.000000 -Nl RTR -Nw --- -Ma 0 -Md ffffffff -Ms 0 -Mt 800 -Is 36.255 -Id 37.255 -It DSR -Il 48 -If 0 -Ii 2 -Iv 32 -P dsr -Ph 2 -Pq 1 -Ps 2 -Pp 0 -Pn 2 -Pl 0 -Pe 0->0 -Pw 0 -Pm 0 -Pc 0 -Pb 0->0 
r -t 0.039137170 -Hs 3 -Hd -1 -Ni 3 -Nx 206.07 -Ny 226.78 -Nz 0.00 -Ne -1.000000 -Nl RTR -Nw --- -Ma 0 -Md ffffffff -Ms 0 -Mt 800 -Is 36.255 -Id 37.255 -It DSR -Il 48 -If 0 -Ii 2 -Iv 32 -P dsr -Ph 2 -Pq 1 -Ps 2 -Pp 0 -Pn 2 -Pl 0 -Pe 0->0 -Pw 0 -Pm 0 -Pc 0 -Pb 0->0 
r -t 0.039137183 -Hs 36 -Hd -1 -Ni 36 -Nx 2.00 -Ny 2.00 -Nz 0.00 -Ne -1.000000 -Nl RTR -Nw --- -Ma 0 -Md ffffffff -Ms 0 -Mt 800 -Is 36.255 -Id 37.255 -It DSR -Il 48 -If 0 -Ii 2 -Iv 32 -P dsr -Ph 2 -Pq 1 -Ps 2 -Pp 0 -Pn 2 -Pl 0 -Pe 0->0 -Pw 0 -Pm 0 -Pc 0 -Pb 0->0 
r -t 0.039137197 -Hs 19 -Hd -1 -Ni 19 -Nx 29.29 -Ny 262.13 -Nz 0.00 -Ne -1.000000 -Nl RTR -Nw --- -Ma 0 -Md ffffffff -Ms 0 -Mt 800 -Is 36.255 -Id 37.255 -It DSR -Il 48 -If 0 -Ii 2 -Iv 32 -P dsr -Ph 2 -Pq 1 -Ps 2 -Pp 0 -Pn 2 -Pl 0 -Pe 0->0 -Pw 0 -Pm 0 -Pc 0 -Pb 0->0 
r -t 0.039137197 -Hs 9 -Hd -1 -Ni 9 -Nx 170.71 -Ny 262.13 -Nz 0.00 -Ne -1.000000 -Nl RTR -Nw --- -Ma 0 -Md ffffffff -Ms 0 -Mt 800 -Is 36.255 -Id 37.255 -It DSR -Il 48 -If 0 -Ii 2 -Iv 32 -P dsr -Ph 2 -Pq 1 -Ps 2 -Pp 0 -Pn 2 -Pl 0 -Pe 0->0 -Pw 0 -Pm 0 -Pc 0 -Pb 0->0 
r -t 0.039137271 -Hs 20 -Hd -1 -Ni 20 -Nx 64.64 -Ny 297.49 -Nz 0.00 -Ne -1.000000 -Nl RTR -Nw --- -Ma 0 -Md ffffffff -Ms 0 -Mt 800 -Is 36.255 -Id 37.255 -It DSR -Il 48 -If 0 -Ii 2 -Iv 32 -P dsr -Ph 2 -Pq 1 -Ps 2 -Pp 0 -Pn 2 -Pl 0 -Pe 0->0 -Pw 0 -Pm 0 -Pc 0 -Pb 0->0 
r -t 0.039137271 -Hs 15 -Hd -1 -Ni 15 -Nx 135.36 -Ny 297.49 -Nz 0.00 -Ne -1.000000 -Nl RTR -Nw --- -Ma 0 -Md ffffffff -Ms 0 -Mt 800 -Is 36.255 -Id 37.255 -It DSR -Il 48 -If 0 -Ii 2 -Iv 32 -P dsr -Ph 2 -Pq 1 -Ps 2 -Pp 0 -Pn 2 -Pl 0 -Pe 0->0 -Pw 0 -Pm 0 -Pc 0 -Pb 0->0 
r -t 0.039137336 -Hs 24 -Hd -1 -Ni 24 -Nx -41.42 -Ny 262.13 -Nz 0.00 -Ne -1.000000 -Nl RTR -Nw --- -Ma 0 -Md ffffffff -Ms 0 -Mt 800 -Is 36.255 -Id 37.255 -It DSR -Il 48 -If 0 -Ii 2 -Iv 32 -P dsr -Ph 2 -Pq 1 -Ps 2 -Pp 0 -Pn 2 -Pl 0 -Pe 0->0 -Pw 0 -Pm 0 -Pc 0 -Pb 0->0 
r -t 0.039137336 -Hs 4 -Hd -1 -Ni 4 -Nx 241.42 -Ny 262.13 -Nz 0.00 -Ne -1.000000 -Nl RTR -Nw --- -Ma 0 -Md ffffffff -Ms 0 -Mt 800 -Is 36.255 -Id 37.255 -It DSR -Il 48 -If 0 -Ii 2 -Iv 32 -P dsr -Ph 2 -Pq 1 -Ps 2 -Pp 0 -Pn 2 -Pl 0 -Pe 0->0 -Pw 0 -Pm 0 -Pc 0 -Pb 0->0 
r -t 0.039137357 -Hs 25 -Hd -1 -Ni 25 -Nx -6.07 -Ny 297.49 -Nz 0.00 -Ne -1.000000 -Nl RTR -Nw --- -Ma 0 -Md ffffffff -Ms 0 -Mt 800 -Is 36.255 -Id 37.255 -It DSR -Il 48 -If 0 -Ii 2 -Iv 32 -P dsr -Ph 2 -Pq 1 -Ps 2 -Pp 0 -Pn 2 -Pl 0 -Pe 0->0 -Pw 0 -Pm 0 -Pc 0 -Pb 0->0 
r -t 0.039137357 -Hs 10 -Hd -1 -Ni 10 -Nx 206.07 -Ny 297.49 -Nz 0.00 -Ne -1.000000 -Nl RTR -Nw --- -Ma 0 -Md ffffffff -Ms 0 -Mt 800 -Is 36.255 -Id 37.255 -It DSR -Il 48 -If 0 -Ii 2 -Iv 32 -P dsr -Ph 2 -Pq 1 -Ps 2 -Pp 0 -Pn 2 -Pl 0 -Pe 0->0 -Pw 0 -Pm 0 -Pc 0 -Pb 0->0 
r -t 0.039137377 -Hs 21 -Hd -1 -Ni 21 -Nx 100.00 -Ny 332.84 -Nz 0.00 -Ne -1.000000 -Nl RTR -Nw --- -Ma 0 -Md ffffffff -Ms 0 -Mt 800 -Is 36.255 -Id 37.255 -It DSR -Il 48 -If 0 -Ii 2 -Iv 32 -P dsr -Ph 2 -Pq 1 -Ps 2 -Pp 0 -Pn 2 -Pl 0 -Pe 0->0 -Pw 0 -Pm 0 -Pc 0 -Pb 0->0 
r -t 0.039137415 -Hs 26 -Hd -1 -Ni 26 -Nx 29.29 -Ny 332.84 -Nz 0.00 -Ne -1.000000 -Nl RTR -Nw --- -Ma 0 -Md ffffffff -Ms 0 -Mt 800 -Is 36.255 -Id 37.255 -It DSR -Il 48 -If 0 -Ii 2 -Iv 32 -P dsr -Ph 2 -Pq 1 -Ps 2 -Pp 0 -Pn 2 -Pl 0 -Pe 0->0 -Pw 0 -Pm 0 -Pc 0 -Pb 0->0 
r -t 0.039137415 -Hs 16 -Hd -1 -Ni 16 -Nx 170.71 -Ny 332.84 -Nz 0.00 -Ne -1.000000 -Nl RTR -Nw --- -Ma 0 -Md ffffffff -Ms 0 -Mt 800 -Is 36.255 -Id 37.255 -It DSR -Il 48 -If 0 -Ii 2 -Iv 32 -P dsr -Ph 2 -Pq 1 -Ps 2 -Pp 0 -Pn 2 -Pl 0 -Pe 0->0 -Pw 0 -Pm 0 -Pc 0 -Pb 0->0 
r -t 0.039137503 -Hs 27 -Hd -1 -Ni 27 -Nx 64.64 -Ny 368.20 -Nz 0.00 -Ne -1.000000 -Nl RTR -Nw --- -Ma 0 -Md ffffffff -Ms 0 -Mt 800 -Is 36.255 -Id 37.255 -It DSR -Il 48 -If 0 -Ii 2 -Iv 32 -P dsr -Ph 2 -Pq 1 -Ps 2 -Pp 0 -Pn 2 -Pl 0 -Pe 0->0 -Pw 0 -Pm 0 -Pc 0 -Pb 0->0 
r -t 0.039137503 -Hs 30 -Hd -1 -Ni 30 -Nx -76.78 -Ny 297.49 -Nz 0.00 -Ne -1.000000 -Nl RTR -Nw --- -Ma 0 -Md ffffffff -Ms 0 -Mt 800 -Is 36.255 -Id 37.255 -It DSR -Il 48 -If 0 -Ii 2 -Iv 32 -P dsr -Ph 2 -Pq 1 -Ps 2 -Pp 0 -Pn 2 -Pl 0 -Pe 0->0 -Pw 0 -Pm 0 -Pc 0 -Pb 0->0 
r -t 0.039137503 -Hs 22 -Hd -1 -Ni 22 -Nx 135.36 -Ny 368.20 -Nz 0.00 -Ne -1.000000 -Nl RTR -Nw --- -Ma 0 -Md ffffffff -Ms 0 -Mt 800 -Is 36.255 -Id 37.255 -It DSR -Il 48 -If 0 -Ii 2 -Iv 32 -P dsr -Ph 2 -Pq 1 -Ps 2 -Pp 0 -Pn 2 -Pl 0 -Pe 0->0 -Pw 0 -Pm 0 -Pc 0 -Pb 0->0 
r -t 0.039137503 -Hs 5 -Hd -1 -Ni 5 -Nx 276.78 -Ny 297.49 -Nz 0.00 -Ne -1.000000 -Nl RTR -Nw --- -Ma 0 -Md ffffffff -Ms 0 -Mt 800 -Is 36.255 -Id 37.255 -It DSR -Il 48 -If 0 -Ii 2 -Iv 32 -P dsr -Ph 2 -Pq 1 -Ps 2 -Pp 0 -Pn 2 -Pl 0 -Pe 0->0 -Pw 0 -Pm 0 -Pc 0 -Pb 0->0 
f -t 0.039535362 -Hs 12 -Hd -1 -Ni 12 -Nx 29.29 -Ny 191.42 -Nz 0.00 -Ne -1.000000 -Nl RTR -Nw --- -Ma 0 -Md ffffffff -Ms 24 -Mt 800 -Is 36.255 -Id 37.255 -It DSR -Il 48 -If 0 -Ii 2 -Iv 32 -P dsr -Ph 2 -Pq 1 -Ps 2 -Pp 0 -Pn 2 -Pl 0 -Pe 0->0 -Pw 0 -Pm 0 -Pc 0 -Pb 0->0 
s -t 0.039638466 -Hs 37 -Hd 0 -Ni 37 -Nx 150.00 -Ny 250.00 -Nz 0.00 -Ne -1.000000 -Nl RTR -Nw --- -Ma 0 -Md 0 -Ms 0 -Mt 0 -Is 37.255 -Id 36.255 -It DSR -Il 52 -If 0 -Ii 3 -Iv 254 -P dsr -Ph 3 -Pq 0 -Ps 2 -Pp 1 -Pn 2 -Pl 3 -Pe 36->37 -Pw 0 -Pm 0 -Pc 0 -Pb 0->0 
f -t 0.039740700 -Hs 13 -Hd -1 -Ni 13 -Nx 64.64 -Ny 226.78 -Nz 0.00 -Ne -1.000000 -Nl RTR -Nw --- -Ma 0 -Md ffffffff -Ms 24 -Mt 800 -Is 36.255 -Id 37.255 -It DSR -Il 48 -If 0 -Ii 2 -Iv 32 -P dsr -Ph 2 -Pq 1 -Ps 2 -Pp 0 -Pn 2 -Pl 0 -Pe 0->0 -Pw 0 -Pm 0 -Pc 0 -Pb 0->0 
f -t 0.040019272 -Hs 20 -Hd -1 -Ni 20 -Nx 64.64 -Ny 297.49 -Nz 0.00 -Ne -1.000000 -Nl RTR -Nw --- -Ma 0 -Md ffffffff -Ms 0 -Mt 800 -Is 36.255 -Id 37.255 -It DSR -Il 68 -If 0 -Ii 2 -Iv 32 -P dsr -Ph 3 -Pq 1 -Ps 2 -Pp 0 -Pn 2 -Pl 0 -Pe 0->0 -Pw 0 -Pm 0 -Pc 0 -Pb 0->0 
f -t 0.040050572 -Hs 2 -Hd -1 -Ni 2 -Nx 170.71 -Ny 191.42 -Nz 0.00 -Ne -1.000000 -Nl RTR -Nw --- -Ma 0 -Md ffffffff -Ms 0 -Mt 800 -Is 36.255 -Id 37.255 -It DSR -Il 68 -If 0 -Ii 2 -Iv 32 -P dsr -Ph 3 -Pq 1 -Ps 2 -Pp 0 -Pn 2 -Pl 0 -Pe 0->0 -Pw 0 -Pm 0 -Pc 0 -Pb 0->0 
f -t 0.040946306 -Hs 6 -Hd -1 -Ni 6 -Nx 64.64 -Ny 156.07 -Nz 0.00 -Ne -1.000000 -Nl RTR -Nw --- -Ma 0 -Md ffffffff -Ms 24 -Mt 800 -Is 36.255 -Id 37.255 -It DSR -Il 48 -If 0 -Ii 2 -Iv 32 -P dsr -Ph 2 -Pq 1 -Ps 2 -Pp 0 -Pn 2 -Pl 0 -Pe 0->0 -Pw 0 -Pm 0 -Pc 0 -Pb 0->0 
r -t 0.041684839 -Hs 8 -Hd -1 -Ni 8 -Nx 135.36 -Ny 226.78 -Nz 0.00 -Ne -1.000000 -Nl RTR -Nw --- -Ma 0 -Md ffffffff -Ms 2 -Mt 800 -Is 36.255 -Id 37.255 -It DSR -Il 68 -If 0 -Ii 2 -Iv 32 -P dsr -Ph 3 -Pq 1 -Ps 2 -Pp 0 -Pn 2 -Pl 0 -Pe 0->0 -Pw 0 -Pm 0 -Pc 0 -Pb 0->0 
r -t 0.041684839 -Hs 1 -Hd -1 -Ni 1 -Nx 135.36 -Ny 156.07 -Nz 0.00 -Ne -1.000000 -Nl RTR -Nw --- -Ma 0 -Md ffffffff -Ms 2 -Mt 800 -Is 36.255 -Id 37.255 -It DSR -Il 68 -If 0 -Ii 2 -Iv 32 -P dsr -Ph 3 -Pq 1 -Ps 2 -Pp 0 -Pn 2 -Pl 0 -Pe 0->0 -Pw 0 -Pm 0 -Pc 0 -Pb 0->0 
r -t 0.041684839 -Hs 3 -Hd -1 -Ni 3 -Nx 206.07 -Ny 226.78 -Nz 0.00 -Ne -1.000000 -Nl RTR -Nw --- -Ma 0 -Md ffffffff -Ms 2 -Mt 800 -Is 36.255 -Id 37.255 -It DSR -Il 68 -If 0 -Ii 2 -Iv 32 -P dsr -Ph 3 -Pq 1 -Ps 2 -Pp 0 -Pn 2 -Pl 0 -Pe 0->0 -Pw 0 -Pm 0 -Pc 0 -Pb 0->0 
r -t 0.041684880 -Hs 37 -Hd -1 -Ni 37 -Nx 150.00 -Ny 250.00 -Nz 0.00 -Ne -1.000000 -Nl RTR -Nw --- -Ma 0 -Md ffffffff -Ms 2 -Mt 800 -Is 36.255 -Id 37.255 -It DSR -Il 68 -If 0 -Ii 2 -Iv 32 -P dsr -Ph 3 -Pq 1 -Ps 2 -Pp 0 -Pn 2 -Pl 0 -Pe 0->0 -Pw 0 -Pm 0 -Pc 0 -Pb 0->0 
r -t 0.041684909 -Hs 7 -Hd -1 -Ni 7 -Nx 100.00 -Ny 191.42 -Nz 0.00 -Ne -1.000000 -Nl RTR -Nw --- -Ma 0 -Md ffffffff -Ms 2 -Mt 800 -Is 36.255 -Id 37.255 -It DSR -Il 68 -If 0 -Ii 2 -Iv 32 -P dsr -Ph 3 -Pq 1 -Ps 2 -Pp 0 -Pn 2 -Pl 0 -Pe 0->0 -Pw 0 -Pm 0 -Pc 0 -Pb 0->0 
r -t 0.041684909 -Hs 9 -Hd -1 -Ni 9 -Nx 170.71 -Ny 262.13 -Nz 0.00 -Ne -1.000000 -Nl RTR -Nw --- -Ma 0 -Md ffffffff -Ms 2 -Mt 800 -Is 36.255 -Id 37.255 -It DSR -Il 68 -If 0 -Ii 2 -Iv 32 -P dsr -Ph 3 -Pq 1 -Ps 2 -Pp 0 -Pn 2 -Pl 0 -Pe 0->0 -Pw 0 -Pm 0 -Pc 0 -Pb 0->0 
r -t 0.041685006 -Hs 14 -Hd -1 -Ni 14 -Nx 100.00 -Ny 262.13 -Nz 0.00 -Ne -1.000000 -Nl RTR -Nw --- -Ma 0 -Md ffffffff -Ms 2 -Mt 800 -Is 36.255 -Id 37.255 -It DSR -Il 68 -If 0 -Ii 2 -Iv 32 -P dsr -Ph 3 -Pq 1 -Ps 2 -Pp 0 -Pn 2 -Pl 0 -Pe 0->0 -Pw 0 -Pm 0 -Pc 0 -Pb 0->0 
r -t 0.041685006 -Hs 0 -Hd -1 -Ni 0 -Nx 100.00 -Ny 120.71 -Nz 0.00 -Ne -1.000000 -Nl RTR -Nw --- -Ma 0 -Md ffffffff -Ms 2 -Mt 800 -Is 36.255 -Id 37.255 -It DSR -Il 68 -If 0 -Ii 2 -Iv 32 -P dsr -Ph 3 -Pq 1 -Ps 2 -Pp 0 -Pn 2 -Pl 0 -Pe 0->0 -Pw 0 -Pm 0 -Pc 0 -Pb 0->0 
r -t 0.041685006 -Hs 4 -Hd -1 -Ni 4 -Nx 241.42 -Ny 262.13 -Nz 0.00 -Ne -1.000000 -Nl RTR -Nw --- -Ma 0 -Md ffffffff -Ms 2 -Mt 800 -Is 36.255 -Id 37.255 -It DSR -Il 68 -If 0 -Ii 2 -Iv 32 -P dsr -Ph 3 -Pq 1 -Ps 2 -Pp 0 -Pn 2 -Pl 0 -Pe 0->0 -Pw 0 -Pm 0 -Pc 0 -Pb 0->0 
r -t 0.041685045 -Hs 15 -Hd -1 -Ni 15 -Nx 135.36 -Ny 297.49 -Nz 0.00 -Ne -1.000000 -Nl RTR -Nw --- -Ma 0 -Md ffffffff -Ms 2 -Mt 800 -Is 36.255 -Id 37.255 -It DSR -Il 68 -If 0 -Ii 2 -Iv 32 -P dsr -Ph 3 -Pq 1 -Ps 2 -Pp 0 -Pn 2 -Pl 0 -Pe 0->0 -Pw 0 -Pm 0 -Pc 0 -Pb 0->0 
r -t 0.041685045 -Hs 13 -Hd -1 -Ni 13 -Nx 64.64 -Ny 226.78 -Nz 0.00 -Ne -1.000000 -Nl RTR -Nw --- -Ma 0 -Md ffffffff -Ms 2 -Mt 800 -Is 36.255 -Id 37.255 -It DSR -Il 68 -If 0 -Ii 2 -Iv 32 -P dsr -Ph 3 -Pq 1 -Ps 2 -Pp 0 -Pn 2 -Pl 0 -Pe 0->0 -Pw 0 -Pm 0 -Pc 0 -Pb 0->0 
r -t 0.041685045 -Hs 6 -Hd -1 -Ni 6 -Nx 64.64 -Ny 156.07 -Nz 0.00 -Ne -1.000000 -Nl RTR -Nw --- -Ma 0 -Md ffffffff -Ms 2 -Mt 800 -Is 36.255 -Id 37.255 -It DSR -Il 68 -If 0 -Ii 2 -Iv 32 -P dsr -Ph 3 -Pq 1 -Ps 2 -Pp 0 -Pn 2 -Pl 0 -Pe 0->0 -Pw 0 -Pm 0 -Pc 0 -Pb 0->0 
r -t 0.041685045 -Hs 10 -Hd -1 -Ni 10 -Nx 206.07 -Ny 297.49 -Nz 0.00 -Ne -1.000000 -Nl RTR -Nw --- -Ma 0 -Md ffffffff -Ms 2 -Mt 800 -Is 36.255 -Id 37.255 -It DSR -Il 68 -If 0 -Ii 2 -Iv 32 -P dsr -Ph 3 -Pq 1 -Ps 2 -Pp 0 -Pn 2 -Pl 0 -Pe 0->0 -Pw 0 -Pm 0 -Pc 0 -Pb 0->0 
r -t 0.041685144 -Hs 12 -Hd -1 -Ni 12 -Nx 29.29 -Ny 191.42 -Nz 0.00 -Ne -1.000000 -Nl RTR -Nw --- -Ma 0 -Md ffffffff -Ms 2 -Mt 800 -Is 36.255 -Id 37.255 -It DSR -Il 68 -If 0 -Ii 2 -Iv 32 -P dsr -Ph 3 -Pq 1 -Ps 2 -Pp 0 -Pn 2 -Pl 0 -Pe 0->0 -Pw 0 -Pm 0 -Pc 0 -Pb 0->0 
r -t 0.041685144 -Hs 16 -Hd -1 -Ni 16 -Nx 170.71 -Ny 332.84 -Nz 0.00 -Ne -1.000000 -Nl RTR -Nw --- -Ma 0 -Md ffffffff -Ms 2 -Mt 800 -Is 36.255 -Id 37.255 -It DSR -Il 68 -If 0 -Ii 2 -Iv 32 -P dsr -Ph 3 -Pq 1 -Ps 2 -Pp 0 -Pn 2 -Pl 0 -Pe 0->0 -Pw 0 -Pm 0 -Pc 0 -Pb 0->0 
r -t 0.041685173 -Hs 20 -Hd -1 -Ni 20 -Nx 64.64 -Ny 297.49 -Nz 0.00 -Ne -1.000000 -Nl RTR -Nw --- -Ma 0 -Md ffffffff -Ms 2 -Mt 800 -Is 36.255 -Id 37.255 -It DSR -Il 68 -If 0 -Ii 2 -Iv 32 -P dsr -Ph 3 -Pq 1 -Ps 2 -Pp 0 -Pn 2 -Pl 0 -Pe 0->0 -Pw 0 -Pm 0 -Pc 0 -Pb 0->0 
r -t 0.041685173 -Hs 5 -Hd -1 -Ni 5 -Nx 276.78 -Ny 297.49 -Nz 0.00 -Ne -1.000000 -Nl RTR -Nw --- -Ma 0 -Md ffffffff -Ms 2 -Mt 800 -Is 36.255 -Id 37.255 -It DSR -Il 68 -If 0 -Ii 2 -Iv 32 -P dsr -Ph 3 -Pq 1 -Ps 2 -Pp 0 -Pn 2 -Pl 0 -Pe 0->0 -Pw 0 -Pm 0 -Pc 0 -Pb 0->0 
r -t 0.041685200 -Hs 21 -Hd -1 -Ni 21 -Nx 100.00 -Ny 332.84 -Nz 0.00 -Ne -1.000000 -Nl RTR -Nw --- -Ma 0 -Md ffffffff -Ms 2 -Mt 800 -Is 36.255 -Id 37.255 -It DSR -Il 68 -If 0 -Ii 2 -Iv 32 -P dsr -Ph 3 -Pq 1 -Ps 2 -Pp 0 -Pn 2 -Pl 0 -Pe 0->0 -Pw 0 -Pm 0 -Pc 0 -Pb 0->0 
r -t 0.041685200 -Hs 19 -Hd -1 -Ni 19 -Nx 29.29 -Ny 262.13 -Nz 0.00 -Ne -1.000000 -Nl RTR -Nw --- -Ma 0 -Md ffffffff -Ms 2 -Mt 800 -Is 36.255 -Id 37.255 -It DSR -Il 68 -If 0 -Ii 2 -Iv 32 -P dsr -Ph 3 -Pq 1 -Ps 2 -Pp 0 -Pn 2 -Pl 0 -Pe 0->0 -Pw 0 -Pm 0 -Pc 0 -Pb 0->0 
r -t 0.041685200 -Hs 11 -Hd -1 -Ni 11 -Nx 241.42 -Ny 332.84 -Nz 0.00 -Ne -1.000000 -Nl RTR -Nw --- -Ma 0 -Md ffffffff -Ms 2 -Mt 800 -Is 36.255 -Id 37.255 -It DSR -Il 68 -If 0 -Ii 2 -Iv 32 -P dsr -Ph 3 -Pq 1 -Ps 2 -Pp 0 -Pn 2 -Pl 0 -Pe 0->0 -Pw 0 -Pm 0 -Pc 0 -Pb 0->0 
r -t 0.041685274 -Hs 22 -Hd -1 -Ni 22 -Nx 135.36 -Ny 368.20 -Nz 0.00 -Ne -1.000000 -Nl RTR -Nw --- -Ma 0 -Md ffffffff -Ms 2 -Mt 800 -Is 36.255 -Id 37.255 -It DSR -Il 68 -If 0 -Ii 2 -Iv 32 -P dsr -Ph 3 -Pq 1 -Ps 2 -Pp 0 -Pn 2 -Pl 0 -Pe 0->0 -Pw 0 -Pm 0 -Pc 0 -Pb 0->0 
r -t 0.041685274 -Hs 18 -Hd -1 -Ni 18 -Nx -6.07 -Ny 226.78 -Nz 0.00 -Ne -1.000000 -Nl RTR -Nw --- -Ma 0 -Md ffffffff -Ms 2 -Mt 800 -Is 36.255 -Id 37.255 -It DSR -Il 68 -If 0 -Ii 2 -Iv 32 -P dsr -Ph 3 -Pq 1 -Ps 2 -Pp 0 -Pn 2 -Pl 0 -Pe 0->0 -Pw 0 -Pm 0 -Pc 0 -Pb 0->0 
r -t 0.041685274 -Hs 17 -Hd -1 -Ni 17 -Nx 206.07 -Ny 368.20 -Nz 0.00 -Ne -1.000000 -Nl RTR -Nw --- -Ma 0 -Md ffffffff -Ms 2 -Mt 800 -Is 36.255 -Id 37.255 -It DSR -Il 68 -If 0 -Ii 2 -Iv 32 -P dsr -Ph 3 -Pq 1 -Ps 2 -Pp 0 -Pn 2 -Pl 0 -Pe 0->0 -Pw 0 -Pm 0 -Pc 0 -Pb 0->0 
r -t 0.041685339 -Hs 26 -Hd -1 -Ni 26 -Nx 29.29 -Ny 332.84 -Nz 0.00 -Ne -1.000000 -Nl RTR -Nw --- -Ma 0 -Md ffffffff -Ms 2 -Mt 800 -Is 36.255 -Id 37.255 -It DSR -Il 68 -If 0 -Ii 2 -Iv 32 -P dsr -Ph 3 -Pq 1 -Ps 2 -Pp 0 -Pn 2 -Pl 0 -Pe 0->0 -Pw 0 -Pm 0 -Pc 0 -Pb 0->0 
r -t 0.041685360 -Hs 27 -Hd -1 -Ni 27 -Nx 64.64 -Ny 368.20 -Nz 0.00 -Ne -1.000000 -Nl RTR -Nw --- -Ma 0 -Md ffffffff -Ms 2 -Mt 800 -Is 36.255 -Id 37.255 -It DSR -Il 68 -If 0 -Ii 2 -Iv 32 -P dsr -Ph 3 -Pq 1 -Ps 2 -Pp 0 -Pn 2 -Pl 0 -Pe 0->0 -Pw 0 -Pm 0 -Pc 0 -Pb 0->0 
r -t 0.041685360 -Hs 25 -Hd -1 -Ni 25 -Nx -6.07 -Ny 297.49 -Nz 0.00 -Ne -1.000000 -Nl RTR -Nw --- -Ma 0 -Md ffffffff -Ms 2 -Mt 800 -Is 36.255 -Id 37.255 -It DSR -Il 68 -If 0 -Ii 2 -Iv 32 -P dsr -Ph 3 -Pq 1 -Ps 2 -Pp 0 -Pn 2 -Pl 0 -Pe 0->0 -Pw 0 -Pm 0 -Pc 0 -Pb 0->0 
r -t 0.041685380 -Hs 23 -Hd -1 -Ni 23 -Nx 170.71 -Ny 403.55 -Nz 0.00 -Ne -1.000000 -Nl RTR -Nw --- -Ma 0 -Md ffffffff -Ms 2 -Mt 800 -Is 36.255 -Id 37.255 -It DSR -Il 68 -If 0 -Ii 2 -Iv 32 -P dsr -Ph 3 -Pq 1 -Ps 2 -Pp 0 -Pn 2 -Pl 0 -Pe 0->0 -Pw 0 -Pm 0 -Pc 0 -Pb 0->0 
r -t 0.041685418 -Hs 28 -Hd -1 -Ni 28 -Nx 100.00 -Ny 403.55 -Nz 0.00 -Ne -1.000000 -Nl RTR -Nw --- -Ma 0 -Md ffffffff -Ms 2 -Mt 800 -Is 36.255 -Id 37.255 -It DSR -Il 68 -If 0 -Ii 2 -Iv 32 -P dsr -Ph 3 -Pq 1 -Ps 2 -Pp 0 -Pn 2 -Pl 0 -Pe 0->0 -Pw 0 -Pm 0 -Pc 0 -Pb 0->0 
r -t 0.041685418 -Hs 24 -Hd -1 -Ni 24 -Nx -41.42 -Ny 262.13 -Nz 0.00 -Ne -1.000000 -Nl RTR -Nw --- -Ma 0 -Md ffffffff -Ms 2 -Mt 800 -Is 36.255 -Id 37.255 -It DSR -Il 68 -If 0 -Ii 2 -Iv 32 -P dsr -Ph 3 -Pq 1 -Ps 2 -Pp 0 -Pn 2 -Pl 0 -Pe 0->0 -Pw 0 -Pm 0 -Pc 0 -Pb 0->0 
r -t 0.041685506 -Hs 29 -Hd -1 -Ni 29 -Nx 135.36 -Ny 438.91 -Nz 0.00 -Ne -1.000000 -Nl RTR -Nw --- -Ma 0 -Md ffffffff -Ms 2 -Mt 800 -Is 36.255 -Id 37.255 -It DSR -Il 68 -If 0 -Ii 2 -Iv 32 -P dsr -Ph 3 -Pq 1 -Ps 2 -Pp 0 -Pn 2 -Pl 0 -Pe 0->0 -Pw 0 -Pm 0 -Pc 0 -Pb 0->0 
r -t 0.041685506 -Hs 32 -Hd -1 -Ni 32 -Nx -6.07 -Ny 368.20 -Nz 0.00 -Ne -1.000000 -Nl RTR -Nw --- -Ma 0 -Md ffffffff -Ms 2 -Mt 800 -Is 36.255 -Id 37.255 -It DSR -Il 68 -If 0 -Ii 2 -Iv 32 -P dsr -Ph 3 -Pq 1 -Ps 2 -Pp 0 -Pn 2 -Pl 0 -Pe 0->0 -Pw 0 -Pm 0 -Pc 0 -Pb 0->0 
s -t 0.041718383 -Hs 37 -Hd 2 -Ni 37 -Nx 150.00 -Ny 250.00 -Nz 0.00 -Ne -1.000000 -Nl RTR -Nw --- -Ma 0 -Md 0 -Ms 0 -Mt 0 -Is 37.255 -Id 36.255 -It DSR -Il 60 -If 0 -Ii 4 -Iv 254 -P dsr -Ph 4 -Pq 0 -Ps 2 -Pp 1 -Pn 2 -Pl 4 -Pe 36->37 -Pw 0 -Pm 0 -Pc 0 -Pb 0->0 
f -t 0.042004920 -Hs 32 -Hd -1 -Ni 32 -Nx -6.07 -Ny 368.20 -Nz 0.00 -Ne -1.000000 -Nl RTR -Nw --- -Ma 0 -Md ffffffff -Ms 2 -Mt 800 -Is 36.255 -Id 37.255 -It DSR -Il 92 -If 0 -Ii 2 -Iv 32 -P dsr -Ph 4 -Pq 1 -Ps 2 -Pp 0 -Pn 2 -Pl 0 -Pe 0->0 -Pw 0 -Pm 0 -Pc 0 -Pb 0->0 
r -t 0.042623311 -Hs 6 -Hd -1 -Ni 6 -Nx 64.64 -Ny 156.07 -Nz 0.00 -Ne -1.000000 -Nl RTR -Nw --- -Ma 0 -Md ffffffff -Ms c -Mt 800 -Is 36.255 -Id 37.255 -It DSR -Il 48 -If 0 -Ii 2 -Iv 32 -P dsr -Ph 2 -Pq 1 -Ps 2 -Pp 0 -Pn 2 -Pl 0 -Pe 0->0 -Pw 0 -Pm 0 -Pc 0 -Pb 0->0 
r -t 0.042623478 -Hs 0 -Hd -1 -Ni 0 -Nx 100.00 -Ny 120.71 -Nz 0.00 -Ne -1.000000 -Nl RTR -Nw --- -Ma 0 -Md ffffffff -Ms c -Mt 800 -Is 36.255 -Id 37.255 -It DSR -Il 48 -If 0 -Ii 2 -Iv 32 -P dsr -Ph 2 -Pq 1 -Ps 2 -Pp 0 -Pn 2 -Pl 0 -Pe 0->0 -Pw 0 -Pm 0 -Pc 0 -Pb 0->0 
f -t 0.042698001 -Hs 16 -Hd -1 -Ni 16 -Nx 170.71 -Ny 332.84 -Nz 0.00 -Ne -1.000000 -Nl RTR -Nw --- -Ma 0 -Md ffffffff -Ms 0 -Mt 800 -Is 36.255 -Id 37.255 -It DSR -Il 68 -If 0 -Ii 2 -Iv 32 -P dsr -Ph 3 -Pq 1 -Ps 2 -Pp 0 -Pn 2 -Pl 0 -Pe 0->0 -Pw 0 -Pm 0 -Pc 0 -Pb 0->0 
r -t 0.042783339 -Hs 26 -Hd -1 -Ni 26 -Nx 29.29 -Ny 332.84 -Nz 0.00 -Ne -1.000000 -Nl RTR -Nw --- -Ma 0 -Md ffffffff -Ms 14 -Mt 800 -Is 36.255 -Id 37.255 -It DSR -Il 68 -If 0 -Ii 2 -Iv 32 -P dsr -Ph 3 -Pq 1 -Ps 2 -Pp 0 -Pn 2 -Pl 0 -Pe 0->0 -Pw 0 -Pm 0 -Pc 0 -Pb 0->0 
r -t 0.042783339 -Hs 21 -Hd -1 -Ni 21 -Nx 100.00 -Ny 332.84 -Nz 0.00 -Ne -1.000000 -Nl RTR -Nw --- -Ma 0 -Md ffffffff -Ms 14 -Mt 800 -Is 36.255 -Id 37.255 -It DSR -Il 68 -If 0 -Ii 2 -Iv 32 -P dsr -Ph 3 -Pq 1 -Ps 2 -Pp 0 -Pn 2 -Pl 0 -Pe 0->0 -Pw 0 -Pm 0 -Pc 0 -Pb 0->0 
r -t 0.042783409 -Hs 27 -Hd -1 -Ni 27 -Nx 64.64 -Ny 368.20 -Nz 0.00 -Ne -1.000000 -Nl RTR -Nw --- -Ma 0 -Md ffffffff -Ms 14 -Mt 800 -Is 36.255 -Id 37.255 -It DSR -Il 68 -If 0 -Ii 2 -Iv 32 -P dsr -Ph 3 -Pq 1 -Ps 2 -Pp 0 -Pn 2 -Pl 0 -Pe 0->0 -Pw 0 -Pm 0 -Pc 0 -Pb 0->0 
r -t 0.042783409 -Hs 15 -Hd -1 -Ni 15 -Nx 135.36 -Ny 297.49 -Nz 0.00 -Ne -1.000000 -Nl RTR -Nw --- -Ma 0 -Md ffffffff -Ms 14 -Mt 800 -Is 36.255 -Id 37.255 -It DSR -Il 68 -If 0 -Ii 2 -Iv 32 -P dsr -Ph 3 -Pq 1 -Ps 2 -Pp 0 -Pn 2 -Pl 0 -Pe 0->0 -Pw 0 -Pm 0 -Pc 0 -Pb 0->0 
r -t 0.042783506 -Hs 32 -Hd -1 -Ni 32 -Nx -6.07 -Ny 368.20 -Nz 0.00 -Ne -1.000000 -Nl RTR -Nw --- -Ma 0 -Md ffffffff -Ms 14 -Mt 800 -Is 36.255 -Id 37.255 -It DSR -Il 68 -If 0 -Ii 2 -Iv 32 -P dsr -Ph 3 -Pq 1 -Ps 2 -Pp 0 -Pn 2 -Pl 0 -Pe 0->0 -Pw 0 -Pm 0 -Pc 0 -Pb 0->0 
r -t 0.042783506 -Hs 22 -Hd -1 -Ni 22 -Nx 135.36 -Ny 368.20 -Nz 0.00 -Ne -1.000000 -Nl RTR -Nw --- -Ma 0 -Md ffffffff -Ms 14 -Mt 800 -Is 36.255 -Id 37.255 -It DSR -Il 68 -If 0 -Ii 2 -Iv 32 -P dsr -Ph 3 -Pq 1 -Ps 2 -Pp 0 -Pn 2 -Pl 0 -Pe 0->0 -Pw 0 -Pm 0 -Pc 0 -Pb 0->0 
r -t 0.042783545 -Hs 33 -Hd -1 -Ni 33 -Nx 29.29 -Ny 403.55 -Nz 0.00 -Ne -1.000000 -Nl RTR -Nw --- -Ma 0 -Md ffffffff -Ms 14 -Mt 800 -Is 36.255 -Id 37.255 -It DSR -Il 68 -If 0 -Ii 2 -Iv 32 -P dsr -Ph 3 -Pq 1 -Ps 2 -Pp 0 -Pn 2 -Pl 0 -Pe 0->0 -Pw 0 -Pm 0 -Pc 0 -Pb 0->0 
r -t 0.042783545 -Hs 28 -Hd -1 -Ni 28 -Nx 100.00 -Ny 403.55 -Nz 0.00 -Ne -1.000000 -Nl RTR -Nw --- -Ma 0 -Md ffffffff -Ms 14 -Mt 800 -Is 36.255 -Id 37.255 -It DSR -Il 68 -If 0 -Ii 2 -Iv 32 -P dsr -Ph 3 -Pq 1 -Ps 2 -Pp 0 -Pn 2 -Pl 0 -Pe 0->0 -Pw 0 -Pm 0 -Pc 0 -Pb 0->0 
r -t 0.042783545 -Hs 16 -Hd -1 -Ni 16 -Nx 170.71 -Ny 332.84 -Nz 0.00 -Ne -1.000000 -Nl RTR -Nw --- -Ma 0 -Md ffffffff -Ms 14 -Mt 800 -Is 36.255 -Id 37.255 -It DSR -Il 68 -If 0 -Ii 2 -Iv 32 -P dsr -Ph 3 -Pq 1 -Ps 2 -Pp 0 -Pn 2 -Pl 0 -Pe 0->0 -Pw 0 -Pm 0 -Pc 0 -Pb 0->0 
f -t 0.043349397 -Hs 9 -Hd -1 -Ni 9 -Nx 170.71 -Ny 262.13 -Nz 0.00 -Ne -1.000000 -Nl RTR -Nw --- -Ma 0 -Md ffffffff -Ms 0 -Mt 800 -Is 36.255 -Id 37.255 -It DSR -Il 68 -If 0 -Ii 2 -Iv 32 -P dsr -Ph 3 -Pq 1 -Ps 2 -Pp 0 -Pn 2 -Pl 0 -Pe 0->0 -Pw 0 -Pm 0 -Pc 0 -Pb 0->0 
f -t 0.043397696 -Hs 29 -Hd -1 -Ni 29 -Nx 135.36 -Ny 438.91 -Nz 0.00 -Ne -1.000000 -Nl RTR -Nw --- -Ma 0 -Md ffffffff -Ms 2 -Mt 800 -Is 36.255 -Id 37.255 -It DSR -Il 92 -If 0 -Ii 2 -Iv 32 -P dsr -Ph 4 -Pq 1 -Ps 2 -Pp 0 -Pn 2 -Pl 0 -Pe 0->0 -Pw 0 -Pm 0 -Pc 0 -Pb 0->0 
f -t 0.044054259 -Hs 8 -Hd -1 -Ni 8 -Nx 135.36 -Ny 226.78 -Nz 0.00 -Ne -1.000000 -Nl RTR -Nw --- -Ma 0 -Md ffffffff -Ms 0 -Mt 800 -Is 36.255 -Id 37.255 -It DSR -Il 68 -If 0 -Ii 2 -Iv 32 -P dsr -Ph 3 -Pq 1 -Ps 2 -Pp 0 -Pn 2 -Pl 0 -Pe 0->0 -Pw 0 -Pm 0 -Pc 0 -Pb 0->0 
r -t 0.044397912 -Hs 31 -Hd -1 -Ni 31 -Nx -41.42 -Ny 332.84 -Nz 0.00 -Ne -1.000000 -Nl RTR -Nw --- -Ma 0 -Md ffffffff -Ms 20 -Mt 800 -Is 36.255 -Id 37.255 -It DSR -Il 92 -If 0 -Ii 2 -Iv 32 -P dsr -Ph 4 -Pq 1 -Ps 2 -Pp 0 -Pn 2 -Pl 0 -Pe 0->0 -Pw 0 -Pm 0 -Pc 0 -Pb 0->0 
r -t 0.044397912 -Hs 26 -Hd -1 -Ni 26 -Nx 29.29 -Ny 332.84 -Nz 0.00 -Ne -1.000000 -Nl RTR -Nw --- -Ma 0 -Md ffffffff -Ms 20 -Mt 800 -Is 36.255 -Id 37.255 -It DSR -Il 92 -If 0 -Ii 2 -Iv 32 -P dsr -Ph 4 -Pq 1 -Ps 2 -Pp 0 -Pn 2 -Pl 0 -Pe 0->0 -Pw 0 -Pm 0 -Pc 0 -Pb 0->0 
r -t 0.044397912 -Hs 33 -Hd -1 -Ni 33 -Nx 29.29 -Ny 403.55 -Nz 0.00 -Ne -1.000000 -Nl RTR -Nw --- -Ma 0 -Md ffffffff -Ms 20 -Mt 800 -Is 36.255 -Id 37.255 -It DSR -Il 92 -If 0 -Ii 2 -Iv 32 -P dsr -Ph 4 -Pq 1 -Ps 2 -Pp 0 -Pn 2 -Pl 0 -Pe 0->0 -Pw 0 -Pm 0 -Pc 0 -Pb 0->0 
r -t 0.044397981 -Hs 25 -Hd -1 -Ni 25 -Nx -6.07 -Ny 297.49 -Nz 0.00 -Ne -1.000000 -Nl RTR -Nw --- -Ma 0 -Md ffffffff -Ms 20 -Mt 800 -Is 36.255 -Id 37.255 -It DSR -Il 92 -If 0 -Ii 2 -Iv 32 -P dsr -Ph 4 -Pq 1 -Ps 2 -Pp 0 -Pn 2 -Pl 0 -Pe 0->0 -Pw 0 -Pm 0 -Pc 0 -Pb 0->0 
r -t 0.044397981 -Hs 27 -Hd -1 -Ni 27 -Nx 64.64 -Ny 368.20 -Nz 0.00 -Ne -1.000000 -Nl RTR -Nw --- -Ma 0 -Md ffffffff -Ms 20 -Mt 800 -Is 36.255 -Id 37.255 -It DSR -Il 92 -If 0 -Ii 2 -Iv 32 -P dsr -Ph 4 -Pq 1 -Ps 2 -Pp 0 -Pn 2 -Pl 0 -Pe 0->0 -Pw 0 -Pm 0 -Pc 0 -Pb 0->0 
r -t 0.044398078 -Hs 30 -Hd -1 -Ni 30 -Nx -76.78 -Ny 297.49 -Nz 0.00 -Ne -1.000000 -Nl RTR -Nw --- -Ma 0 -Md ffffffff -Ms 20 -Mt 800 -Is 36.255 -Id 37.255 -It DSR -Il 92 -If 0 -Ii 2 -Iv 32 -P dsr -Ph 4 -Pq 1 -Ps 2 -Pp 0 -Pn 2 -Pl 0 -Pe 0->0 -Pw 0 -Pm 0 -Pc 0 -Pb 0->0 
r -t 0.044398078 -Hs 20 -Hd -1 -Ni 20 -Nx 64.64 -Ny 297.49 -Nz 0.00 -Ne -1.000000 -Nl RTR -Nw --- -Ma 0 -Md ffffffff -Ms 20 -Mt 800 -Is 36.255 -Id 37.255 -It DSR -Il 92 -If 0 -Ii 2 -Iv 32 -P dsr -Ph 4 -Pq 1 -Ps 2 -Pp 0 -Pn 2 -Pl 0 -Pe 0->0 -Pw 0 -Pm 0 -Pc 0 -Pb 0->0 
r -t 0.044398078 -Hs 34 -Hd -1 -Ni 34 -Nx 64.64 -Ny 438.91 -Nz 0.00 -Ne -1.000000 -Nl RTR -Nw --- -Ma 0 -Md ffffffff -Ms 20 -Mt 800 -Is 36.255 -Id 37.255 -It DSR -Il 92 -If 0 -Ii 2 -Iv 32 -P dsr -Ph 4 -Pq 1 -Ps 2 -Pp 0 -Pn 2 -Pl 0 -Pe 0->0 -Pw 0 -Pm 0 -Pc 0 -Pb 0->0 
r -t 0.044398118 -Hs 24 -Hd -1 -Ni 24 -Nx -41.42 -Ny 262.13 -Nz 0.00 -Ne -1.000000 -Nl RTR -Nw --- -Ma 0 -Md ffffffff -Ms 20 -Mt 800 -Is 36.255 -Id 37.255 -It DSR -Il 92 -If 0 -Ii 2 -Iv 32 -P dsr -Ph 4 -Pq 1 -Ps 2 -Pp 0 -Pn 2 -Pl 0 -Pe 0->0 -Pw 0 -Pm 0 -Pc 0 -Pb 0->0 
r -t 0.044398118 -Hs 19 -Hd -1 -Ni 19 -Nx 29.29 -Ny 262.13 -Nz 0.00 -Ne -1.000000 -Nl RTR -Nw --- -Ma 0 -Md ffffffff -Ms 20 -Mt 800 -Is 36.255 -Id 37.255 -It DSR -Il 92 -If 0 -Ii 2 -Iv 32 -P dsr -Ph 4 -Pq 1 -Ps 2 -Pp 0 -Pn 2 -Pl 0 -Pe 0->0 -Pw 0 -Pm 0 -Pc 0 -Pb 0->0 
r -t 0.044398118 -Hs 21 -Hd -1 -Ni 21 -Nx 100.00 -Ny 332.84 -Nz 0.00 -Ne -1.000000 -Nl RTR -Nw --- -Ma 0 -Md ffffffff -Ms 20 -Mt 800 -Is 36.255 -Id 37.255 -It DSR -Il 92 -If 0 -Ii 2 -Iv 32 -P dsr -Ph 4 -Pq 1 -Ps 2 -Pp 0 -Pn 2 -Pl 0 -Pe 0->0 -Pw 0 -Pm 0 -Pc 0 -Pb 0->0 
r -t 0.044398118 -Hs 28 -Hd -1 -Ni 28 -Nx 100.00 -Ny 403.55 -Nz 0.00 -Ne -1.000000 -Nl RTR -Nw --- -Ma 0 -Md ffffffff -Ms 20 -Mt 800 -Is 36.255 -Id 37.255 -It DSR -Il 92 -If 0 -Ii 2 -Iv 32 -P dsr -Ph 4 -Pq 1 -Ps 2 -Pp 0 -Pn 2 -Pl 0 -Pe 0->0 -Pw 0 -Pm 0 -Pc 0 -Pb 0->0 