s 0.000169789 _0_ RTR  --- 0 undefined 48 [0 0 0 0] ------- [0:255 -1:255 32 0] [1 0 [HELLO 0 0 0]]
r 0.001478496 _4_ RTR  --- 0 undefined 48 [0 ffffffff 0 800] ------- [0:255 -1:255 32 0] [1 0 [HELLO 0 0 0]]
r 0.001478496 _1_ RTR  --- 0 undefined 48 [0 ffffffff 0 800] ------- [0:255 -1:255 32 0] [1 0 [HELLO 0 0 0]]
s 0.044061336 _1_ RTR  --- 1 undefined 48 [0 0 0 0] ------- [1:255 -1:255 32 0] [1 0 [HELLO 1 0 0]]
r 0.045170002 _2_ RTR  --- 1 undefined 48 [0 ffffffff 1 800] ------- [1:255 -1:255 32 0] [1 0 [HELLO 1 0 0]]
r 0.045170043 _3_ RTR  --- 1 undefined 48 [0 ffffffff 1 800] ------- [1:255 -1:255 32 0] [1 0 [HELLO 1 0 0]]
r 0.045170043 _0_ RTR  --- 1 undefined 48 [0 ffffffff 1 800] ------- [1:255 -1:255 32 0] [1 0 [HELLO 1 0 0]]
s 0.082072703 _4_ RTR  --- 2 undefined 48 [0 0 0 0] ------- [4:255 -1:255 32 0] [1 0 [HELLO 4 0 0]]
r 0.083361410 _3_ RTR  --- 2 undefined 48 [0 ffffffff 4 800] ------- [4:255 -1:255 32 0] [1 0 [HELLO 4 0 0]]
r 0.083361410 _0_ RTR  --- 2 undefined 48 [0 ffffffff 4 800] ------- [4:255 -1:255 32 0] [1 0 [HELLO 4 0 0]]
s 0.156480886 _2_ RTR  --- 3 undefined 48 [0 0 0 0] ------- [2:255 -1:255 32 0] [1 0 [HELLO 2 0 0]]
r 0.157629552 _1_ RTR  --- 3 undefined 48 [0 ffffffff 2 800] ------- [2:255 -1:255 32 0] [1 0 [HELLO 2 0 0]]
s 0.319432572 _3_ RTR  --- 4 undefined 48 [0 0 0 0] ------- [3:255 -1:255 32 0] [1 0 [HELLO 3 0 0]]
r 0.320401279 _1_ RTR  --- 4 undefined 48 [0 ffffffff 3 800] ------- [3:255 -1:255 32 0] [1 0 [HELLO 3 0 0]]
r 0.320401279 _4_ RTR  --- 4 undefined 48 [0 ffffffff 3 800] ------- [3:255 -1:255 32 0] [1 0 [HELLO 3 0 0]]
s 1.824819942 _2_ RTR  --- 5 undefined 56 [0 0 0 0] ------- [2:255 -1:255 32 0] [1 1 [HELLO 2 0 1]]
r 1.825872609 _1_ RTR  --- 5 undefined 56 [0 ffffffff 2 800] ------- [2:255 -1:255 32 0] [1 1 [HELLO 2 0 1]]
s 1.887993039 _1_ RTR  --- 6 undefined 64 [0 0 0 0] ------- [1:255 -1:255 32 0] [1 1 [HELLO 1 0 1]]
r 1.889149705 _2_ RTR  --- 6 undefined 64 [0 ffffffff 1 800] ------- [1:255 -1:255 32 0] [1 1 [HELLO 1 0 1]]
r 1.889149746 _3_ RTR  --- 6 undefined 64 [0 ffffffff 1 800] ------- [1:255 -1:255 32 0] [1 1 [HELLO 1 0 1]]
r 1.889149746 _0_ RTR  --- 6 undefined 64 [0 ffffffff 1 800] ------- [1:255 -1:255 32 0] [1 1 [HELLO 1 0 1]]
s 2.153093282 _0_ RTR  --- 7 undefined 60 [0 0 0 0] ------- [0:255 -1:255 32 0] [1 1 [HELLO 0 0 1]]
r 2.154657990 _4_ RTR  --- 7 undefined 60 [0 ffffffff 0 800] ------- [0:255 -1:255 32 0] [1 1 [HELLO 0 0 1]]
r 2.154657990 _1_ RTR  --- 7 undefined 60 [0 ffffffff 0 800] ------- [0:255 -1:255 32 0] [1 1 [HELLO 0 0 1]]
s 2.180706485 _4_ RTR  --- 8 undefined 60 [0 0 0 0] ------- [4:255 -1:255 32 0] [1 1 [HELLO 4 0 1]]
r 2.181951192 _3_ RTR  --- 8 undefined 60 [0 ffffffff 4 800] ------- [4:255 -1:255 32 0] [1 1 [HELLO 4 0 1]]
r 2.181951192 _0_ RTR  --- 8 undefined 60 [0 ffffffff 4 800] ------- [4:255 -1:255 32 0] [1 1 [HELLO 4 0 1]]
s 2.226576417 _3_ RTR  --- 9 undefined 60 [0 0 0 0] ------- [3:255 -1:255 32 0] [1 1 [HELLO 3 0 1]]
r 2.227681125 _1_ RTR  --- 9 undefined 60 [0 ffffffff 3 800] ------- [3:255 -1:255 32 0] [1 1 [HELLO 3 0 1]]
r 2.227681125 _4_ RTR  --- 9 undefined 60 [0 ffffffff 3 800] ------- [3:255 -1:255 32 0] [1 1 [HELLO 3 0 1]]
s 3.363698788 _0_ RTR  --- 10 undefined 60 [0 0 0 0] ------- [0:255 -1:255 32 0] [1 2 [HELLO 0 0 2]]
r 3.365023496 _4_ RTR  --- 10 undefined 60 [0 ffffffff 0 800] ------- [0:255 -1:255 32 0] [1 2 [HELLO 0 0 2]]
r 3.365023496 _1_ RTR  --- 10 undefined 60 [0 ffffffff 0 800] ------- [0:255 -1:255 32 0] [1 2 [HELLO 0 0 2]]
s 3.543122252 _2_ RTR  --- 11 undefined 56 [0 0 0 0] ------- [2:255 -1:255 32 0] [1 2 [HELLO 2 0 2]]
r 3.544454919 _1_ RTR  --- 11 undefined 56 [0 ffffffff 2 800] ------- [2:255 -1:255 32 0] [1 2 [HELLO 2 0 2]]
s 3.665398720 _3_ RTR  --- 12 undefined 60 [0 0 0 0] ------- [3:255 -1:255 32 0] [1 2 [HELLO 3 0 2]]
r 3.666743427 _1_ RTR  --- 12 undefined 60 [0 ffffffff 3 800] ------- [3:255 -1:255 32 0] [1 2 [HELLO 3 0 2]]
r 3.666743427 _4_ RTR  --- 12 undefined 60 [0 ffffffff 3 800] ------- [3:255 -1:255 32 0] [1 2 [HELLO 3 0 2]]
s 3.871644134 _1_ RTR  --- 13 undefined 68 [0 0 0 0] ------- [1:255 -1:255 32 0] [1 2 [HELLO 1 0 2]]
r 3.872992801 _2_ RTR  --- 13 undefined 68 [0 ffffffff 1 800] ------- [1:255 -1:255 32 0] [1 2 [HELLO 1 0 2]]
r 3.872992841 _3_ RTR  --- 13 undefined 68 [0 ffffffff 1 800] ------- [1:255 -1:255 32 0] [1 2 [HELLO 1 0 2]]
r 3.872992841 _0_ RTR  --- 13 undefined 68 [0 ffffffff 1 800] ------- [1:255 -1:255 32 0] [1 2 [HELLO 1 0 2]]
s 4.271267969 _4_ RTR  --- 14 undefined 64 [0 0 0 0] ------- [4:255 -1:255 32 0] [1 2 [HELLO 4 0 2]]
r 4.272824676 _3_ RTR  --- 14 undefined 64 [0 ffffffff 4 800] ------- [4:255 -1:255 32 0] [1 2 [HELLO 4 0 2]]
r 4.272824676 _0_ RTR  --- 14 undefined 64 [0 ffffffff 4 800] ------- [4:255 -1:255 32 0] [1 2 [HELLO 4 0 2]]
s 5.036997743 _0_ RTR  --- 15 undefined 88 [0 0 0 0] ------- [0:255 -1:255 32 0] [2 3 [HELLO 0 0 3][TC 0 0 4]]
r 5.038326450 _4_ RTR  --- 15 undefined 88 [0 ffffffff 0 800] ------- [0:255 -1:255 32 0] [2 3 [HELLO 0 0 3][TC 0 0 4]]
r 5.038326450 _1_ RTR  --- 15 undefined 88 [0 ffffffff 0 800] ------- [0:255 -1:255 32 0] [2 3 [HELLO 0 0 3][TC 0 0 4]]
s 5.370833419 _2_ RTR  --- 16 undefined 56 [0 0 0 0] ------- [2:255 -1:255 32 0] [1 3 [HELLO 2 0 3]]
r 5.372426086 _1_ RTR  --- 16 undefined 56 [0 ffffffff 2 800] ------- [2:255 -1:255 32 0] [1 3 [HELLO 2 0 3]]
s 5.387212640 _3_ RTR  --- 17 undefined 64 [0 0 0 0] ------- [3:255 -1:255 32 0] [1 3 [HELLO 3 0 3]]
r 5.388889347 _1_ RTR  --- 17 undefined 64 [0 ffffffff 3 800] ------- [3:255 -1:255 32 0] [1 3 [HELLO 3 0 3]]
r 5.388889347 _4_ RTR  --- 17 undefined 64 [0 ffffffff 3 800] ------- [3:255 -1:255 32 0] [1 3 [HELLO 3 0 3]]
s 5.475649602 _1_ RTR  --- 18 undefined 56 [0 0 0 0] ------- [1:255 -1:255 32 0] [1 3 [TC 0 1 4]]
r 5.477202268 _2_ RTR  --- 18 undefined 56 [0 ffffffff 1 800] ------- [1:255 -1:255 32 0] [1 3 [TC 0 1 4]]
r 5.477202309 _3_ RTR  --- 18 undefined 56 [0 ffffffff 1 800] ------- [1:255 -1:255 32 0] [1 3 [TC 0 1 4]]
r 5.477202309 _0_ RTR  --- 18 undefined 56 [0 ffffffff 1 800] ------- [1:255 -1:255 32 0] [1 3 [TC 0 1 4]]
s 5.720015974 _1_ RTR  --- 19 undefined 68 [0 0 0 0] ------- [1:255 -1:255 32 0] [1 4 [HELLO 1 0 3]]
r 5.721464641 _2_ RTR  --- 19 undefined 68 [0 ffffffff 1 800] ------- [1:255 -1:255 32 0] [1 4 [HELLO 1 0 3]]
r 5.721464681 _3_ RTR  --- 19 undefined 68 [0 ffffffff 1 800] ------- [1:255 -1:255 32 0] [1 4 [HELLO 1 0 3]]
r 5.721464681 _0_ RTR  --- 19 undefined 68 [0 ffffffff 1 800] ------- [1:255 -1:255 32 0] [1 4 [HELLO 1 0 3]]
s 5.781640355 _4_ RTR  --- 20 undefined 64 [0 0 0 0] ------- [4:255 -1:255 32 0] [1 3 [HELLO 4 0 3]]
r 5.782897063 _3_ RTR  --- 20 undefined 64 [0 ffffffff 4 800] ------- [4:255 -1:255 32 0] [1 3 [HELLO 4 0 3]]
r 5.782897063 _0_ RTR  --- 20 undefined 64 [0 ffffffff 4 800] ------- [4:255 -1:255 32 0] [1 3 [HELLO 4 0 3]]
s 6.758900203 _0_ RTR  --- 21 undefined 64 [0 0 0 0] ------- [0:255 -1:255 32 0] [1 4 [HELLO 0 0 5]]
r 6.760116910 _4_ RTR  --- 21 undefined 64 [0 ffffffff 0 800] ------- [0:255 -1:255 32 0] [1 4 [HELLO 0 0 5]]
r 6.760116910 _1_ RTR  --- 21 undefined 64 [0 ffffffff 0 800] ------- [0:255 -1:255 32 0] [1 4 [HELLO 0 0 5]]
s 6.892480577 _2_ RTR  --- 22 undefined 56 [0 0 0 0] ------- [2:255 -1:255 32 0] [1 4 [HELLO 2 0 4]]
r 6.893813243 _1_ RTR  --- 22 undefined 56 [0 ffffffff 2 800] ------- [2:255 -1:255 32 0] [1 4 [HELLO 2 0 4]]
s 7.144180225 _3_ RTR  --- 23 undefined 64 [0 0 0 0] ------- [3:255 -1:255 32 0] [1 4 [HELLO 3 0 4]]
r 7.145756932 _1_ RTR  --- 23 undefined 64 [0 ffffffff 3 800] ------- [3:255 -1:255 32 0] [1 4 [HELLO 3 0 4]]
r 7.145756932 _4_ RTR  --- 23 undefined 64 [0 ffffffff 3 800] ------- [3:255 -1:255 32 0] [1 4 [HELLO 3 0 4]]
s 7.749511312 _1_ RTR  --- 24 undefined 68 [0 0 0 0] ------- [1:255 -1:255 32 0] [1 5 [HELLO 1 0 4]]
r 7.750619978 _2_ RTR  --- 24 undefined 68 [0 ffffffff 1 800] ------- [1:255 -1:255 32 0] [1 5 [HELLO 1 0 4]]
r 7.750620019 _3_ RTR  --- 24 undefined 68 [0 ffffffff 1 800] ------- [1:255 -1:255 32 0] [1 5 [HELLO 1 0 4]]
r 7.750620019 _0_ RTR  --- 24 undefined 68 [0 ffffffff 1 800] ------- [1:255 -1:255 32 0] [1 5 [HELLO 1 0 4]]
s 8.000211580 _4_ RTR  --- 25 undefined 64 [0 0 0 0] ------- [4:255 -1:255 32 0] [1 4 [HELLO 4 0 4]]
r 8.001808288 _3_ RTR  --- 25 undefined 64 [0 ffffffff 4 800] ------- [4:255 -1:255 32 0] [1 4 [HELLO 4 0 4]]
r 8.001808288 _0_ RTR  --- 25 undefined 64 [0 ffffffff 4 800] ------- [4:255 -1:255 32 0] [1 4 [HELLO 4 0 4]]
s 8.722968437 _2_ RTR  --- 26 undefined 56 [0 0 0 0] ------- [2:255 -1:255 32 0] [1 5 [HELLO 2 0 5]]
r 8.724001103 _1_ RTR  --- 26 undefined 56 [0 ffffffff 2 800] ------- [2:255 -1:255 32 0] [1 5 [HELLO 2 0 5]]
s 8.887016868 _3_ RTR  --- 27 undefined 64 [0 0 0 0] ------- [3:255 -1:255 32 0] [1 5 [HELLO 3 0 5]]
r 8.888533575 _1_ RTR  --- 27 undefined 64 [0 ffffffff 3 800] ------- [3:255 -1:255 32 0] [1 5 [HELLO 3 0 5]]
r 8.888533575 _4_ RTR  --- 27 undefined 64 [0 ffffffff 3 800] ------- [3:255 -1:255 32 0] [1 5 [HELLO 3 0 5]]
s 9.046064979 _0_ RTR  --- 28 undefined 64 [0 0 0 0] ------- [0:255 -1:255 32 0] [1 5 [HELLO 0 0 6]]
r 9.047621686 _4_ RTR  --- 28 undefined 64 [0 ffffffff 0 800] ------- [0:255 -1:255 32 0] [1 5 [HELLO 0 0 6]]
r 9.047621686 _1_ RTR  --- 28 undefined 64 [0 ffffffff 0 800] ------- [0:255 -1:255 32 0] [1 5 [HELLO 0 0 6]]
s 9.472410214 _1_ RTR  --- 29 undefined 68 [0 0 0 0] ------- [1:255 -1:255 32 0] [1 6 [HELLO 1 0 5]]
r 9.473758881 _2_ RTR  --- 29 undefined 68 [0 ffffffff 1 800] ------- [1:255 -1:255 32 0] [1 6 [HELLO 1 0 5]]
r 9.473758921 _3_ RTR  --- 29 undefined 68 [0 ffffffff 1 800] ------- [1:255 -1:255 32 0] [1 6 [HELLO 1 0 5]]
r 9.473758921 _0_ RTR  --- 29 undefined 68 [0 ffffffff 1 800] ------- [1:255 -1:255 32 0] [1 6 [HELLO 1 0 5]]
s 9.615046551 _0_ RTR  --- 30 undefined 56 [0 0 0 0] ------- [0:255 -1:255 32 0] [1 6 [TC 0 0 7]]
r 9.616279258 _4_ RTR  --- 30 undefined 56 [0 ffffffff 0 800] ------- [0:255 -1:255 32 0] [1 6 [TC 0 0 7]]
r 9.616279258 _1_ RTR  --- 30 undefined 56 [0 ffffffff 0 800] ------- [0:255 -1:255 32 0] [1 6 [TC 0 0 7]]
s 9.668159163 _1_ RTR  --- 31 undefined 84 [0 0 0 0] ------- [1:255 -1:255 32 0] [2 7 [TC 1 0 6][TC 0 1 7]]
r 9.669635830 _2_ RTR  --- 31 undefined 84 [0 ffffffff 1 800] ------- [1:255 -1:255 32 0] [2 7 [TC 1 0 6][TC 0 1 7]]
r 9.669635870 _3_ RTR  --- 31 undefined 84 [0 ffffffff 1 800] ------- [1:255 -1:255 32 0] [2 7 [TC 1 0 6][TC 0 1 7]]
r 9.669635870 _0_ RTR  --- 31 undefined 84 [0 ffffffff 1 800] ------- [1:255 -1:255 32 0] [2 7 [TC 1 0 6][TC 0 1 7]]
s 9.803458031 _4_ RTR  --- 32 undefined 64 [0 0 0 0] ------- [4:255 -1:255 32 0] [1 5 [HELLO 4 0 5]]
r 9.804714738 _3_ RTR  --- 32 undefined 64 [0 ffffffff 4 800] ------- [4:255 -1:255 32 0] [1 5 [HELLO 4 0 5]]
r 9.804714738 _0_ RTR  --- 32 undefined 64 [0 ffffffff 4 800] ------- [4:255 -1:255 32 0] [1 5 [HELLO 4 0 5]]
P 10.000000 _0_ Routing Table
P	dest	next	iface	dist
P	1	1	0	1
P	2	1	0	2
P	3	4	0	2
P	4	4	0	1
s 10.139595300 _0_ RTR  --- 33 undefined 60 [0 0 0 0] ------- [0:255 -1:255 32 0] [1 7 [TC 1 1 6]]
r 10.141140007 _4_ RTR  --- 33 undefined 60 [0 ffffffff 0 800] ------- [0:255 -1:255 32 0] [1 7 [TC 1 1 6]]
r 10.141140007 _1_ RTR  --- 33 undefined 60 [0 ffffffff 0 800] ------- [0:255 -1:255 32 0] [1 7 [TC 1 1 6]]
s 10.756957950 _0_ RTR  --- 34 undefined 64 [0 0 0 0] ------- [0:255 -1:255 32 0] [1 8 [HELLO 0 0 8]]
r 10.758174657 _4_ RTR  --- 34 undefined 64 [0 ffffffff 0 800] ------- [0:255 -1:255 32 0] [1 8 [HELLO 0 0 8]]
r 10.758174657 _1_ RTR  --- 34 undefined 64 [0 ffffffff 0 800] ------- [0:255 -1:255 32 0] [1 8 [HELLO 0 0 8]]
s 10.932860288 _3_ RTR  --- 35 undefined 64 [0 0 0 0] ------- [3:255 -1:255 32 0] [1 6 [HELLO 3 0 6]]
r 10.934476995 _1_ RTR  --- 35 undefined 64 [0 ffffffff 3 800] ------- [3:255 -1:255 32 0] [1 6 [HELLO 3 0 6]]
r 10.934476995 _4_ RTR  --- 35 undefined 64 [0 ffffffff 3 800] ------- [3:255 -1:255 32 0] [1 6 [HELLO 3 0 6]]
s 10.983689185 _2_ RTR  --- 36 undefined 56 [0 0 0 0] ------- [2:255 -1:255 32 0] [1 6 [HELLO 2 0 6]]
r 10.984701851 _1_ RTR  --- 36 undefined 56 [0 ffffffff 2 800] ------- [2:255 -1:255 32 0] [1 6 [HELLO 2 0 6]]
s 11.242031289 _4_ RTR  --- 37 undefined 64 [0 0 0 0] ------- [4:255 -1:255 32 0] [1 6 [HELLO 4 0 6]]
r 11.243447996 _3_ RTR  --- 37 undefined 64 [0 ffffffff 4 800] ------- [4:255 -1:255 32 0] [1 6 [HELLO 4 0 6]]
r 11.243447996 _0_ RTR  --- 37 undefined 64 [0 ffffffff 4 800] ------- [4:255 -1:255 32 0] [1 6 [HELLO 4 0 6]]
s 11.342608559 _1_ RTR  --- 38 undefined 68 [0 0 0 0] ------- [1:255 -1:255 32 0] [1 8 [HELLO 1 0 7]]
r 11.344197225 _2_ RTR  --- 38 undefined 68 [0 ffffffff 1 800] ------- [1:255 -1:255 32 0] [1 8 [HELLO 1 0 7]]
r 11.344197266 _3_ RTR  --- 38 undefined 68 [0 ffffffff 1 800] ------- [1:255 -1:255 32 0] [1 8 [HELLO 1 0 7]]
r 11.344197266 _0_ RTR  --- 38 undefined 68 [0 ffffffff 1 800] ------- [1:255 -1:255 32 0] [1 8 [HELLO 1 0 7]]
s 12.330446650 _3_ RTR  --- 39 undefined 64 [0 0 0 0] ------- [3:255 -1:255 32 0] [1 7 [HELLO 3 0 7]]
r 12.331523357 _1_ RTR  --- 39 undefined 64 [0 ffffffff 3 800] ------- [3:255 -1:255 32 0] [1 7 [HELLO 3 0 7]]
r 12.331523357 _4_ RTR  --- 39 undefined 64 [0 ffffffff 3 800] ------- [3:255 -1:255 32 0] [1 7 [HELLO 3 0 7]]
s 12.335211056 _2_ RTR  --- 40 undefined 56 [0 0 0 0] ------- [2:255 -1:255 32 0] [1 7 [HELLO 2 0 7]]
r 12.336543723 _1_ RTR  --- 40 undefined 56 [0 ffffffff 2 800] ------- [2:255 -1:255 32 0] [1 7 [HELLO 2 0 7]]
s 12.563207812 _0_ RTR  --- 41 undefined 64 [0 0 0 0] ------- [0:255 -1:255 32 0] [1 9 [HELLO 0 0 9]]
r 12.564684519 _4_ RTR  --- 41 undefined 64 [0 ffffffff 0 800] ------- [0:255 -1:255 32 0] [1 9 [HELLO 0 0 9]]
r 12.564684519 _1_ RTR  --- 41 undefined 64 [0 ffffffff 0 800] ------- [0:255 -1:255 32 0] [1 9 [HELLO 0 0 9]]
s 13.218996748 _1_ RTR  --- 42 undefined 68 [0 0 0 0] ------- [1:255 -1:255 32 0] [1 9 [HELLO 1 0 8]]
r 13.220665414 _2_ RTR  --- 42 undefined 68 [0 ffffffff 1 800] ------- [1:255 -1:255 32 0] [1 9 [HELLO 1 0 8]]
r 13.220665455 _3_ RTR  --- 42 undefined 68 [0 ffffffff 1 800] ------- [1:255 -1:255 32 0] [1 9 [HELLO 1 0 8]]
r 13.220665455 _0_ RTR  --- 42 undefined 68 [0 ffffffff 1 800] ------- [1:255 -1:255 32 0] [1 9 [HELLO 1 0 8]]
s 13.443751835 _4_ RTR  --- 43 undefined 64 [0 0 0 0] ------- [4:255 -1:255 32 0] [1 7 [HELLO 4 0 7]]
r 13.445168543 _3_ RTR  --- 43 undefined 64 [0 ffffffff 4 800] ------- [4:255 -1:255 32 0] [1 7 [HELLO 4 0 7]]
r 13.445168543 _0_ RTR  --- 43 undefined 64 [0 ffffffff 4 800] ------- [4:255 -1:255 32 0] [1 7 [HELLO 4 0 7]]
s 14.141387252 _1_ RTR  --- 44 undefined 60 [0 0 0 0] ------- [1:255 -1:255 32 0] [1 10 [TC 1 0 9]]
r 14.142531919 _2_ RTR  --- 44 undefined 60 [0 ffffffff 1 800] ------- [1:255 -1:255 32 0] [1 10 [TC 1 0 9]]
r 14.142531959 _3_ RTR  --- 44 undefined 60 [0 ffffffff 1 800] ------- [1:255 -1:255 32 0] [1 10 [TC 1 0 9]]
r 14.142531959 _0_ RTR  --- 44 undefined 60 [0 ffffffff 1 800] ------- [1:255 -1:255 32 0] [1 10 [TC 1 0 9]]
s 14.456595809 _2_ RTR  --- 45 undefined 56 [0 0 0 0] ------- [2:255 -1:255 32 0] [1 8 [HELLO 2 0 8]]
r 14.457948476 _1_ RTR  --- 45 undefined 56 [0 ffffffff 2 800] ------- [2:255 -1:255 32 0] [1 8 [HELLO 2 0 8]]
s 14.509954297 _3_ RTR  --- 46 undefined 64 [0 0 0 0] ------- [3:255 -1:255 32 0] [1 8 [HELLO 3 0 8]]
r 14.511131004 _1_ RTR  --- 46 undefined 64 [0 ffffffff 3 800] ------- [3:255 -1:255 32 0] [1 8 [HELLO 3 0 8]]
r 14.511131004 _4_ RTR  --- 46 undefined 64 [0 ffffffff 3 800] ------- [3:255 -1:255 32 0] [1 8 [HELLO 3 0 8]]
s 14.561679822 _0_ RTR  --- 47 undefined 116 [0 0 0 0] ------- [0:255 -1:255 32 0] [3 10 [TC 1 1 9][TC 0 0 10][HELLO 0 0 11]]
r 14.563652529 _4_ RTR  --- 47 undefined 116 [0 ffffffff 0 800] ------- [0:255 -1:255 32 0] [3 10 [TC 1 1 9][TC 0 0 10][HELLO 0 0 11]]
r 14.563652529 _1_ RTR  --- 47 undefined 116 [0 ffffffff 0 800] ------- [0:255 -1:255 32 0] [3 10 [TC 1 1 9][TC 0 0 10][HELLO 0 0 11]]
s 14.669547829 _1_ RTR  --- 48 undefined 92 [0 0 0 0] ------- [1:255 -1:255 32 0] [2 11 [TC 0 1 10][HELLO 1 0 10]]
r 14.671088496 _2_ RTR  --- 48 undefined 92 [0 ffffffff 1 800] ------- [1:255 -1:255 32 0] [2 11 [TC 0 1 10][HELLO 1 0 10]]
r 14.671088536 _3_ RTR  --- 48 undefined 92 [0 ffffffff 1 800] ------- [1:255 -1:255 32 0] [2 11 [TC 0 1 10][HELLO 1 0 10]]
r 14.671088536 _0_ RTR  --- 48 undefined 92 [0 ffffffff 1 800] ------- [1:255 -1:255 32 0] [2 11 [TC 0 1 10][HELLO 1 0 10]]
P 15.000000 _0_ Link Set
P	local	nb	sym		asym		lost		time
P	0	1	20.671089	20.671089	0.000000	26.671089
P	0	4	19.445169	19.445169	0.000000	25.445169
s 15.153573801 _4_ RTR  --- 49 undefined 64 [0 0 0 0] ------- [4:255 -1:255 32 0] [1 8 [HELLO 4 0 8]]
r 15.154670508 _3_ RTR  --- 49 undefined 64 [0 ffffffff 4 800] ------- [4:255 -1:255 32 0] [1 8 [HELLO 4 0 8]]
r 15.154670508 _0_ RTR  --- 49 undefined 64 [0 ffffffff 4 800] ------- [4:255 -1:255 32 0] [1 8 [HELLO 4 0 8]]
s 16.152471722 _3_ RTR  --- 50 undefined 64 [0 0 0 0] ------- [3:255 -1:255 32 0] [1 9 [HELLO 3 0 9]]
r 16.153708429 _1_ RTR  --- 50 undefined 64 [0 ffffffff 3 800] ------- [3:255 -1:255 32 0] [1 9 [HELLO 3 0 9]]
r 16.153708429 _4_ RTR  --- 50 undefined 64 [0 ffffffff 3 800] ------- [3:255 -1:255 32 0] [1 9 [HELLO 3 0 9]]
s 16.221214809 _1_ RTR  --- 51 undefined 68 [0 0 0 0] ------- [1:255 -1:255 32 0] [1 12 [HELLO 1 0 11]]
r 16.222743476 _2_ RTR  --- 51 undefined 68 [0 ffffffff 1 800] ------- [1:255 -1:255 32 0] [1 12 [HELLO 1 0 11]]
r 16.222743516 _3_ RTR  --- 51 undefined 68 [0 ffffffff 1 800] ------- [1:255 -1:255 32 0] [1 12 [HELLO 1 0 11]]
r 16.222743516 _0_ RTR  --- 51 undefined 68 [0 ffffffff 1 800] ------- [1:255 -1:255 32 0] [1 12 [HELLO 1 0 11]]
s 16.439719231 _0_ RTR  --- 52 undefined 64 [0 0 0 0] ------- [0:255 -1:255 32 0] [1 11 [HELLO 0 0 12]]
r 16.441015938 _4_ RTR  --- 52 undefined 64 [0 ffffffff 0 800] ------- [0:255 -1:255 32 0] [1 11 [HELLO 0 0 12]]
r 16.441015938 _1_ RTR  --- 52 undefined 64 [0 ffffffff 0 800] ------- [0:255 -1:255 32 0] [1 11 [HELLO 0 0 12]]
s 16.462161247 _2_ RTR  --- 53 undefined 56 [0 0 0 0] ------- [2:255 -1:255 32 0] [1 9 [HELLO 2 0 9]]
r 16.463613914 _1_ RTR  --- 53 undefined 56 [0 ffffffff 2 800] ------- [2:255 -1:255 32 0] [1 9 [HELLO 2 0 9]]
s 17.057302118 _4_ RTR  --- 54 undefined 64 [0 0 0 0] ------- [4:255 -1:255 32 0] [1 9 [HELLO 4 0 9]]
r 17.058618825 _3_ RTR  --- 54 undefined 64 [0 ffffffff 4 800] ------- [4:255 -1:255 32 0] [1 9 [HELLO 4 0 9]]
r 17.058618825 _0_ RTR  --- 54 undefined 64 [0 ffffffff 4 800] ------- [4:255 -1:255 32 0] [1 9 [HELLO 4 0 9]]
s 18.088505511 _3_ RTR  --- 55 undefined 64 [0 0 0 0] ------- [3:255 -1:255 32 0] [1 10 [HELLO 3 0 10]]
r 18.090042218 _1_ RTR  --- 55 undefined 64 [0 ffffffff 3 800] ------- [3:255 -1:255 32 0] [1 10 [HELLO 3 0 10]]
r 18.090042218 _4_ RTR  --- 55 undefined 64 [0 ffffffff 3 800] ------- [3:255 -1:255 32 0] [1 10 [HELLO 3 0 10]]
s 18.119332261 _0_ RTR  --- 56 undefined 64 [0 0 0 0] ------- [0:255 -1:255 32 0] [1 12 [HELLO 0 0 13]]
r 18.120948968 _4_ RTR  --- 56 undefined 64 [0 ffffffff 0 800] ------- [0:255 -1:255 32 0] [1 12 [HELLO 0 0 13]]
r 18.120948968 _1_ RTR  --- 56 undefined 64 [0 ffffffff 0 800] ------- [0:255 -1:255 32 0] [1 12 [HELLO 0 0 13]]
s 18.252722783 _1_ RTR  --- 57 undefined 68 [0 0 0 0] ------- [1:255 -1:255 32 0] [1 13 [HELLO 1 0 12]]
r 18.254051449 _2_ RTR  --- 57 undefined 68 [0 ffffffff 1 800] ------- [1:255 -1:255 32 0] [1 13 [HELLO 1 0 12]]
r 18.254051490 _3_ RTR  --- 57 undefined 68 [0 ffffffff 1 800] ------- [1:255 -1:255 32 0] [1 13 [HELLO 1 0 12]]
r 18.254051490 _0_ RTR  --- 57 undefined 68 [0 ffffffff 1 800] ------- [1:255 -1:255 32 0] [1 13 [HELLO 1 0 12]]
s 18.450601441 _4_ RTR  --- 58 undefined 64 [0 0 0 0] ------- [4:255 -1:255 32 0] [1 10 [HELLO 4 0 10]]
r 18.451678148 _3_ RTR  --- 58 undefined 64 [0 ffffffff 4 800] ------- [4:255 -1:255 32 0] [1 10 [HELLO 4 0 10]]
r 18.451678148 _0_ RTR  --- 58 undefined 64 [0 ffffffff 4 800] ------- [4:255 -1:255 32 0] [1 10 [HELLO 4 0 10]]
s 18.525451263 _2_ RTR  --- 59 undefined 56 [0 0 0 0] ------- [2:255 -1:255 32 0] [1 10 [HELLO 2 0 10]]
r 18.526643929 _1_ RTR  --- 59 undefined 56 [0 ffffffff 2 800] ------- [2:255 -1:255 32 0] [1 10 [HELLO 2 0 10]]
s 18.913164029 _1_ RTR  --- 60 undefined 60 [0 0 0 0] ------- [1:255 -1:255 32 0] [1 14 [TC 1 0 13]]
r 18.914548696 _2_ RTR  --- 60 undefined 60 [0 ffffffff 1 800] ------- [1:255 -1:255 32 0] [1 14 [TC 1 0 13]]
r 18.914548736 _3_ RTR  --- 60 undefined 60 [0 ffffffff 1 800] ------- [1:255 -1:255 32 0] [1 14 [TC 1 0 13]]
r 18.914548736 _0_ RTR  --- 60 undefined 60 [0 ffffffff 1 800] ------- [1:255 -1:255 32 0] [1 14 [TC 1 0 13]]
s 19.201926391 _0_ RTR  --- 61 undefined 84 [0 0 0 0] ------- [0:255 -1:255 32 0] [2 13 [TC 1 1 13][TC 0 0 14]]
r 19.203303098 _4_ RTR  --- 61 undefined 84 [0 ffffffff 0 800] ------- [0:255 -1:255 32 0] [2 13 [TC 1 1 13][TC 0 0 14]]
r 19.203303098 _1_ RTR  --- 61 undefined 84 [0 ffffffff 0 800] ------- [0:255 -1:255 32 0] [2 13 [TC 1 1 13][TC 0 0 14]]
s 19.244096038 _1_ RTR  --- 62 undefined 56 [0 0 0 0] ------- [1:255 -1:255 32 0] [1 15 [TC 0 1 14]]
r 19.245488704 _2_ RTR  --- 62 undefined 56 [0 ffffffff 1 800] ------- [1:255 -1:255 32 0] [1 15 [TC 0 1 14]]
r 19.245488745 _3_ RTR  --- 62 undefined 56 [0 ffffffff 1 800] ------- [1:255 -1:255 32 0] [1 15 [TC 0 1 14]]
r 19.245488745 _0_ RTR  --- 62 undefined 56 [0 ffffffff 1 800] ------- [1:255 -1:255 32 0] [1 15 [TC 0 1 14]]
s 19.670498098 _3_ RTR  --- 63 undefined 64 [0 0 0 0] ------- [3:255 -1:255 32 0] [1 11 [HELLO 3 0 11]]
r 19.672114806 _1_ RTR  --- 63 undefined 64 [0 ffffffff 3 800] ------- [3:255 -1:255 32 0] [1 11 [HELLO 3 0 11]]
r 19.672114806 _4_ RTR  --- 63 undefined 64 [0 ffffffff 3 800] ------- [3:255 -1:255 32 0] [1 11 [HELLO 3 0 11]]
s 19.849739168 _1_ RTR  --- 64 undefined 68 [0 0 0 0] ------- [1:255 -1:255 32 0] [1 16 [HELLO 1 0 14]]
r 19.850907834 _2_ RTR  --- 64 undefined 68 [0 ffffffff 1 800] ------- [1:255 -1:255 32 0] [1 16 [HELLO 1 0 14]]
r 19.850907875 _3_ RTR  --- 64 undefined 68 [0 ffffffff 1 800] ------- [1:255 -1:255 32 0] [1 16 [HELLO 1 0 14]]
r 19.850907875 _0_ RTR  --- 64 undefined 68 [0 ffffffff 1 800] ------- [1:255 -1:255 32 0] [1 16 [HELLO 1 0 14]]
P 20.000000 _0_ Neighbor Set
P	nb	status	willingness
P	1	1	3
P	4	1	3
s 20.073143565 _4_ RTR  --- 65 undefined 64 [0 0 0 0] ------- [4:255 -1:255 32 0] [1 11 [HELLO 4 0 11]]
r 20.074820272 _3_ RTR  --- 65 undefined 64 [0 ffffffff 4 800] ------- [4:255 -1:255 32 0] [1 11 [HELLO 4 0 11]]
r 20.074820272 _0_ RTR  --- 65 undefined 64 [0 ffffffff 4 800] ------- [4:255 -1:255 32 0] [1 11 [HELLO 4 0 11]]
s 20.116499458 _0_ RTR  --- 66 undefined 64 [0 0 0 0] ------- [0:255 -1:255 32 0] [1 14 [HELLO 0 0 15]]
r 20.118056165 _4_ RTR  --- 66 undefined 64 [0 ffffffff 0 800] ------- [0:255 -1:255 32 0] [1 14 [HELLO 0 0 15]]
r 20.118056165 _1_ RTR  --- 66 undefined 64 [0 ffffffff 0 800] ------- [0:255 -1:255 32 0] [1 14 [HELLO 0 0 15]]
s 20.163839428 _2_ RTR  --- 67 undefined 56 [0 0 0 0] ------- [2:255 -1:255 32 0] [1 11 [HELLO 2 0 11]]
r 20.165352094 _1_ RTR  --- 67 undefined 56 [0 ffffffff 2 800] ------- [2:255 -1:255 32 0] [1 11 [HELLO 2 0 11]]
s 21.489664721 _3_ RTR  --- 68 undefined 64 [0 0 0 0] ------- [3:255 -1:255 32 0] [1 12 [HELLO 3 0 12]]
r 21.491341428 _1_ RTR  --- 68 undefined 64 [0 ffffffff 3 800] ------- [3:255 -1:255 32 0] [1 12 [HELLO 3 0 12]]
r 21.491341428 _4_ RTR  --- 68 undefined 64 [0 ffffffff 3 800] ------- [3:255 -1:255 32 0] [1 12 [HELLO 3 0 12]]
s 22.007825753 _1_ RTR  --- 69 undefined 68 [0 0 0 0] ------- [1:255 -1:255 32 0] [1 17 [HELLO 1 0 15]]
r 22.009414419 _2_ RTR  --- 69 undefined 68 [0 ffffffff 1 800] ------- [1:255 -1:255 32 0] [1 17 [HELLO 1 0 15]]
r 22.009414460 _3_ RTR  --- 69 undefined 68 [0 ffffffff 1 800] ------- [1:255 -1:255 32 0] [1 17 [HELLO 1 0 15]]
r 22.009414460 _0_ RTR  --- 69 undefined 68 [0 ffffffff 1 800] ------- [1:255 -1:255 32 0] [1 17 [HELLO 1 0 15]]
s 22.130530319 _0_ RTR  --- 70 undefined 64 [0 0 0 0] ------- [0:255 -1:255 32 0] [1 15 [HELLO 0 0 16]]
r 22.132007027 _4_ RTR  --- 70 undefined 64 [0 ffffffff 0 800] ------- [0:255 -1:255 32 0] [1 15 [HELLO 0 0 16]]
r 22.132007027 _1_ RTR  --- 70 undefined 64 [0 ffffffff 0 800] ------- [0:255 -1:255 32 0] [1 15 [HELLO 0 0 16]]
s 22.198946184 _2_ RTR  --- 71 undefined 56 [0 0 0 0] ------- [2:255 -1:255 32 0] [1 12 [HELLO 2 0 12]]
r 22.200378851 _1_ RTR  --- 71 undefined 56 [0 ffffffff 2 800] ------- [2:255 -1:255 32 0] [1 12 [HELLO 2 0 12]]
s 22.285861662 _4_ RTR  --- 72 undefined 64 [0 0 0 0] ------- [4:255 -1:255 32 0] [1 12 [HELLO 4 0 12]]
r 22.287238369 _3_ RTR  --- 72 undefined 64 [0 ffffffff 4 800] ------- [4:255 -1:255 32 0] [1 12 [HELLO 4 0 12]]
r 22.287238369 _0_ RTR  --- 72 undefined 64 [0 ffffffff 4 800] ------- [4:255 -1:255 32 0] [1 12 [HELLO 4 0 12]]
s 23.017046742 _3_ RTR  --- 73 undefined 64 [0 0 0 0] ------- [3:255 -1:255 32 0] [1 13 [HELLO 3 0 13]]
r 23.018623449 _1_ RTR  --- 73 undefined 64 [0 ffffffff 3 800] ------- [3:255 -1:255 32 0] [1 13 [HELLO 3 0 13]]
r 23.018623449 _4_ RTR  --- 73 undefined 64 [0 ffffffff 3 800] ------- [3:255 -1:255 32 0] [1 13 [HELLO 3 0 13]]
s 23.609048060 _1_ RTR  --- 74 undefined 96 [0 0 0 0] ------- [1:255 -1:255 32 0] [2 18 [TC 1 0 16][HELLO 1 0 17]]
r 23.610520726 _2_ RTR  --- 74 undefined 96 [0 ffffffff 1 800] ------- [1:255 -1:255 32 0] [2 18 [TC 1 0 16][HELLO 1 0 17]]
r 23.610520767 _3_ RTR  --- 74 undefined 96 [0 ffffffff 1 800] ------- [1:255 -1:255 32 0] [2 18 [TC 1 0 16][HELLO 1 0 17]]
r 23.610520767 _0_ RTR  --- 74 undefined 96 [0 ffffffff 1 800] ------- [1:255 -1:255 32 0] [2 18 [TC 1 0 16][HELLO 1 0 17]]
s 23.675376964 _0_ RTR  --- 75 undefined 60 [0 0 0 0] ------- [0:255 -1:255 32 0] [1 16 [TC 1 1 16]]
r 23.677021671 _4_ RTR  --- 75 undefined 60 [0 ffffffff 0 800] ------- [0:255 -1:255 32 0] [1 16 [TC 1 1 16]]
r 23.677021671 _1_ RTR  --- 75 undefined 60 [0 ffffffff 0 800] ------- [0:255 -1:255 32 0] [1 16 [TC 1 1 16]]
s 23.877529546 _0_ RTR  --- 76 undefined 64 [0 0 0 0] ------- [0:255 -1:255 32 0] [1 17 [HELLO 0 0 17]]
r 23.878606253 _4_ RTR  --- 76 undefined 64 [0 ffffffff 0 800] ------- [0:255 -1:255 32 0] [1 17 [HELLO 0 0 17]]
r 23.878606253 _1_ RTR  --- 76 undefined 64 [0 ffffffff 0 800] ------- [0:255 -1:255 32 0] [1 17 [HELLO 0 0 17]]
s 23.905473306 _2_ RTR  --- 77 undefined 56 [0 0 0 0] ------- [2:255 -1:255 32 0] [1 13 [HELLO 2 0 13]]
r 23.906485973 _1_ RTR  --- 77 undefined 56 [0 ffffffff 2 800] ------- [2:255 -1:255 32 0] [1 13 [HELLO 2 0 13]]
s 24.090462739 _4_ RTR  --- 78 undefined 64 [0 0 0 0] ------- [4:255 -1:255 32 0] [1 13 [HELLO 4 0 13]]
r 24.091939446 _3_ RTR  --- 78 undefined 64 [0 ffffffff 4 800] ------- [4:255 -1:255 32 0] [1 13 [HELLO 4 0 13]]
r 24.091939446 _0_ RTR  --- 78 undefined 64 [0 ffffffff 4 800] ------- [4:255 -1:255 32 0] [1 13 [HELLO 4 0 13]]
s 24.527559064 _0_ RTR  --- 79 undefined 56 [0 0 0 0] ------- [0:255 -1:255 32 0] [1 18 [TC 0 0 18]]
r 24.528911771 _4_ RTR  --- 79 undefined 56 [0 ffffffff 0 800] ------- [0:255 -1:255 32 0] [1 18 [TC 0 0 18]]
r 24.528911771 _1_ RTR  --- 79 undefined 56 [0 ffffffff 0 800] ------- [0:255 -1:255 32 0] [1 18 [TC 0 0 18]]
s 24.582585292 _1_ RTR  --- 80 undefined 56 [0 0 0 0] ------- [1:255 -1:255 32 0] [1 19 [TC 0 1 18]]
r 24.583597959 _2_ RTR  --- 80 undefined 56 [0 ffffffff 1 800] ------- [1:255 -1:255 32 0] [1 19 [TC 0 1 18]]
r 24.583597999 _3_ RTR  --- 80 undefined 56 [0 ffffffff 1 800] ------- [1:255 -1:255 32 0] [1 19 [TC 0 1 18]]
r 24.583597999 _0_ RTR  --- 80 undefined 56 [0 ffffffff 1 800] ------- [1:255 -1:255 32 0] [1 19 [TC 0 1 18]]
s 24.755423400 _3_ RTR  --- 81 undefined 64 [0 0 0 0] ------- [3:255 -1:255 32 0] [1 14 [HELLO 3 0 14]]
r 24.756880107 _1_ RTR  --- 81 undefined 64 [0 ffffffff 3 800] ------- [3:255 -1:255 32 0] [1 14 [HELLO 3 0 14]]
r 24.756880107 _4_ RTR  --- 81 undefined 64 [0 ffffffff 3 800] ------- [3:255 -1:255 32 0] [1 14 [HELLO 3 0 14]]
P 25.000000 _0_ Neighbor2hop Set
P	nb	nb2hop	time
P	1	2	29.610521
P	1	3	29.610521
P	4	3	30.091939
s 25.349482680 _4_ RTR  --- 82 undefined 64 [0 0 0 0] ------- [4:255 -1:255 32 0] [1 14 [HELLO 4 0 14]]
r 25.351159387 _3_ RTR  --- 82 undefined 64 [0 ffffffff 4 800] ------- [4:255 -1:255 32 0] [1 14 [HELLO 4 0 14]]
r 25.351159387 _0_ RTR  --- 82 undefined 64 [0 ffffffff 4 800] ------- [4:255 -1:255 32 0] [1 14 [HELLO 4 0 14]]
s 25.523921025 _2_ RTR  --- 83 undefined 56 [0 0 0 0] ------- [2:255 -1:255 32 0] [1 14 [HELLO 2 0 14]]
r 25.524993691 _1_ RTR  --- 83 undefined 56 [0 ffffffff 2 800] ------- [2:255 -1:255 32 0] [1 14 [HELLO 2 0 14]]
s 25.751926289 _1_ RTR  --- 84 undefined 68 [0 0 0 0] ------- [1:255 -1:255 32 0] [1 20 [HELLO 1 0 18]]
r 25.753154956 _2_ RTR  --- 84 undefined 68 [0 ffffffff 1 800] ------- [1:255 -1:255 32 0] [1 20 [HELLO 1 0 18]]
r 25.753154997 _3_ RTR  --- 84 undefined 68 [0 ffffffff 1 800] ------- [1:255 -1:255 32 0] [1 20 [HELLO 1 0 18]]
r 25.753154997 _0_ RTR  --- 84 undefined 68 [0 ffffffff 1 800] ------- [1:255 -1:255 32 0] [1 20 [HELLO 1 0 18]]
s 25.780842883 _0_ RTR  --- 85 undefined 64 [0 0 0 0] ------- [0:255 -1:255 32 0] [1 19 [HELLO 0 0 19]]
r 25.782219590 _4_ RTR  --- 85 undefined 64 [0 ffffffff 0 800] ------- [0:255 -1:255 32 0] [1 19 [HELLO 0 0 19]]
r 25.782219590 _1_ RTR  --- 85 undefined 64 [0 ffffffff 0 800] ------- [0:255 -1:255 32 0] [1 19 [HELLO 0 0 19]]
s 26.477515350 _3_ RTR  --- 86 undefined 64 [0 0 0 0] ------- [3:255 -1:255 32 0] [1 15 [HELLO 3 0 15]]
r 26.479012057 _1_ RTR  --- 86 undefined 64 [0 ffffffff 3 800] ------- [3:255 -1:255 32 0] [1 15 [HELLO 3 0 15]]
r 26.479012057 _4_ RTR  --- 86 undefined 64 [0 ffffffff 3 800] ------- [3:255 -1:255 32 0] [1 15 [HELLO 3 0 15]]
s 26.908572970 _2_ RTR  --- 87 undefined 56 [0 0 0 0] ------- [2:255 -1:255 32 0] [1 15 [HELLO 2 0 15]]
r 26.909985637 _1_ RTR  --- 87 undefined 56 [0 ffffffff 2 800] ------- [2:255 -1:255 32 0] [1 15 [HELLO 2 0 15]]
s 27.343901399 _1_ RTR  --- 88 undefined 68 [0 0 0 0] ------- [1:255 -1:255 32 0] [1 21 [HELLO 1 0 19]]
r 27.345450066 _2_ RTR  --- 88 undefined 68 [0 ffffffff 1 800] ------- [1:255 -1:255 32 0] [1 21 [HELLO 1 0 19]]