n -t * -s 0  -x 350 -y 200 -Z 0 -z 20  -v circle -c black
n -t * -s 1  -x 200 -y 350 -Z 0 -z 20  -v circle -c black
n -t * -s 2  -x 200 -y 550 -Z 0 -z 20  -v circle -c black
n -t * -s 3  -x 50 -y 200 -Z 0 -z 20  -v circle -c black
n -t * -s 4  -x 200 -y 50 -Z 0 -z 20  -v circle -c black
V -t * -v 1.0a5 -a 0
W -t * -x 400 -y 600
A -t * -n 1 -p 0 -o 0x7fffffff -c 30 -a 1
A -t * -h 1 -m 1073741823 -s 0
+ -t 0.000169789 -s 0 -d -1 -p undefined -e 48 -c 2 -a 0 -i 0 -k RTR 
- -t 0.000169789 -s 0 -d -1 -p undefined -e 48 -c 2 -a 0 -i 0 -k RTR
h -t 0.000169789 -s 0 -d -1 -p undefined -e 48 -c 2 -a 0 -i 0 -k RTR
r -t 0.001478496 -s 4 -d -1 -p undefined -e 48 -c 2 -a 0 -i 0 -k RTR
r -t 0.001478496 -s 1 -d -1 -p undefined -e 48 -c 2 -a 0 -i 0 -k RTR
+ -t 0.044061336 -s 1 -d -1 -p undefined -e 48 -c 2 -a 0 -i 1 -k RTR 
- -t 0.044061336 -s 1 -d -1 -p undefined -e 48 -c 2 -a 0 -i 1 -k RTR
h -t 0.044061336 -s 1 -d -1 -p undefined -e 48 -c 2 -a 0 -i 1 -k RTR
r -t 0.045170002 -s 2 -d -1 -p undefined -e 48 -c 2 -a 0 -i 1 -k RTR
r -t 0.045170043 -s 3 -d -1 -p undefined -e 48 -c 2 -a 0 -i 1 -k RTR
r -t 0.045170043 -s 0 -d -1 -p undefined -e 48 -c 2 -a 0 -i 1 -k RTR
+ -t 0.082072703 -s 4 -d -1 -p undefined -e 48 -c 2 -a 0 -i 2 -k RTR 
- -t 0.082072703 -s 4 -d -1 -p undefined -e 48 -c 2 -a 0 -i 2 -k RTR
h -t 0.082072703 -s 4 -d -1 -p undefined -e 48 -c 2 -a 0 -i 2 -k RTR
r -t 0.083361410 -s 3 -d -1 -p undefined -e 48 -c 2 -a 0 -i 2 -k RTR
r -t 0.083361410 -s 0 -d -1 -p undefined -e 48 -c 2 -a 0 -i 2 -k RTR
+ -t 0.156480886 -s 2 -d -1 -p undefined -e 48 -c 2 -a 0 -i 3 -k RTR 
- -t 0.156480886 -s 2 -d -1 -p undefined -e 48 -c 2 -a 0 -i 3 -k RTR
h -t 0.156480886 -s 2 -d -1 -p undefined -e 48 -c 2 -a 0 -i 3 -k RTR
r -t 0.157629552 -s 1 -d -1 -p undefined -e 48 -c 2 -a 0 -i 3 -k RTR
+ -t 0.319432572 -s 3 -d -1 -p undefined -e 48 -c 2 -a 0 -i 4 -k RTR 
- -t 0.319432572 -s 3 -d -1 -p undefined -e 48 -c 2 -a 0 -i 4 -k RTR
h -t 0.319432572 -s 3 -d -1 -p undefined -e 48 -c 2 -a 0 -i 4 -k RTR
r -t 0.320401279 -s 1 -d -1 -p undefined -e 48 -c 2 -a 0 -i 4 -k RTR
r -t 0.320401279 -s 4 -d -1 -p undefined -e 48 -c 2 -a 0 -i 4 -k RTR
+ -t 1.824819942 -s 2 -d -1 -p undefined -e 56 -c 2 -a 0 -i 5 -k RTR 
- -t 1.824819942 -s 2 -d -1 -p undefined -e 56 -c 2 -a 0 -i 5 -k RTR
h -t 1.824819942 -s 2 -d -1 -p undefined -e 56 -c 2 -a 0 -i 5 -k RTR
r -t 1.825872609 -s 1 -d -1 -p undefined -e 56 -c 2 -a 0 -i 5 -k RTR
+ -t 1.887993039 -s 1 -d -1 -p undefined -e 64 -c 2 -a 0 -i 6 -k RTR 
- -t 1.887993039 -s 1 -d -1 -p undefined -e 64 -c 2 -a 0 -i 6 -k RTR
h -t 1.887993039 -s 1 -d -1 -p undefined -e 64 -c 2 -a 0 -i 6 -k RTR
r -t 1.889149705 -s 2 -d -1 -p undefined -e 64 -c 2 -a 0 -i 6 -k RTR
r -t 1.889149746 -s 3 -d -1 -p undefined -e 64 -c 2 -a 0 -i 6 -k RTR
r -t 1.889149746 -s 0 -d -1 -p undefined -e 64 -c 2 -a 0 -i 6 -k RTR
+ -t 2.153093282 -s 0 -d -1 -p undefined -e 60 -c 2 -a 0 -i 7 -k RTR 
- -t 2.153093282 -s 0 -d -1 -p undefined -e 60 -c 2 -a 0 -i 7 -k RTR
h -t 2.153093282 -s 0 -d -1 -p undefined -e 60 -c 2 -a 0 -i 7 -k RTR
r -t 2.154657990 -s 4 -d -1 -p undefined -e 60 -c 2 -a 0 -i 7 -k RTR
r -t 2.154657990 -s 1 -d -1 -p undefined -e 60 -c 2 -a 0 -i 7 -k RTR
+ -t 2.180706485 -s 4 -d -1 -p undefined -e 60 -c 2 -a 0 -i 8 -k RTR 
- -t 2.180706485 -s 4 -d -1 -p undefined -e 60 -c 2 -a 0 -i 8 -k RTR
h -t 2.180706485 -s 4 -d -1 -p undefined -e 60 -c 2 -a 0 -i 8 -k RTR
r -t 2.181951192 -s 3 -d -1 -p undefined -e 60 -c 2 -a 0 -i 8 -k RTR
r -t 2.181951192 -s 0 -d -1 -p undefined -e 60 -c 2 -a 0 -i 8 -k RTR
+ -t 2.226576417 -s 3 -d -1 -p undefined -e 60 -c 2 -a 0 -i 9 -k RTR 
- -t 2.226576417 -s 3 -d -1 -p undefined -e 60 -c 2 -a 0 -i 9 -k RTR
h -t 2.226576417 -s 3 -d -1 -p undefined -e 60 -c 2 -a 0 -i 9 -k RTR
r -t 2.227681125 -s 1 -d -1 -p undefined -e 60 -c 2 -a 0 -i 9 -k RTR
r -t 2.227681125 -s 4 -d -1 -p undefined -e 60 -c 2 -a 0 -i 9 -k RTR
+ -t 3.363698788 -s 0 -d -1 -p undefined -e 60 -c 2 -a 0 -i 10 -k RTR 
- -t 3.363698788 -s 0 -d -1 -p undefined -e 60 -c 2 -a 0 -i 10 -k RTR
h -t 3.363698788 -s 0 -d -1 -p undefined -e 60 -c 2 -a 0 -i 10 -k RTR
r -t 3.365023496 -s 4 -d -1 -p undefined -e 60 -c 2 -a 0 -i 10 -k RTR
r -t 3.365023496 -s 1 -d -1 -p undefined -e 60 -c 2 -a 0 -i 10 -k RTR
+ -t 3.543122252 -s 2 -d -1 -p undefined -e 56 -c 2 -a 0 -i 11 -k RTR 
- -t 3.543122252 -s 2 -d -1 -p undefined -e 56 -c 2 -a 0 -i 11 -k RTR
h -t 3.543122252 -s 2 -d -1 -p undefined -e 56 -c 2 -a 0 -i 11 -k RTR
r -t 3.544454919 -s 1 -d -1 -p undefined -e 56 -c 2 -a 0 -i 11 -k RTR
+ -t 3.665398720 -s 3 -d -1 -p undefined -e 60 -c 2 -a 0 -i 12 -k RTR 
- -t 3.665398720 -s 3 -d -1 -p undefined -e 60 -c 2 -a 0 -i 12 -k RTR
h -t 3.665398720 -s 3 -d -1 -p undefined -e 60 -c 2 -a 0 -i 12 -k RTR
r -t 3.666743427 -s 1 -d -1 -p undefined -e 60 -c 2 -a 0 -i 12 -k RTR
r -t 3.666743427 -s 4 -d -1 -p undefined -e 60 -c 2 -a 0 -i 12 -k RTR
+ -t 3.871644134 -s 1 -d -1 -p undefined -e 68 -c 2 -a 0 -i 13 -k RTR 
- -t 3.871644134 -s 1 -d -1 -p undefined -e 68 -c 2 -a 0 -i 13 -k RTR
h -t 3.871644134 -s 1 -d -1 -p undefined -e 68 -c 2 -a 0 -i 13 -k RTR
r -t 3.872992801 -s 2 -d -1 -p undefined -e 68 -c 2 -a 0 -i 13 -k RTR
r -t 3.872992841 -s 3 -d -1 -p undefined -e 68 -c 2 -a 0 -i 13 -k RTR
r -t 3.872992841 -s 0 -d -1 -p undefined -e 68 -c 2 -a 0 -i 13 -k RTR
+ -t 4.271267969 -s 4 -d -1 -p undefined -e 64 -c 2 -a 0 -i 14 -k RTR 
- -t 4.271267969 -s 4 -d -1 -p undefined -e 64 -c 2 -a 0 -i 14 -k RTR
h -t 4.271267969 -s 4 -d -1 -p undefined -e 64 -c 2 -a 0 -i 14 -k RTR
r -t 4.272824676 -s 3 -d -1 -p undefined -e 64 -c 2 -a 0 -i 14 -k RTR
r -t 4.272824676 -s 0 -d -1 -p undefined -e 64 -c 2 -a 0 -i 14 -k RTR
+ -t 5.036997743 -s 0 -d -1 -p undefined -e 88 -c 2 -a 0 -i 15 -k RTR 
- -t 5.036997743 -s 0 -d -1 -p undefined -e 88 -c 2 -a 0 -i 15 -k RTR
h -t 5.036997743 -s 0 -d -1 -p undefined -e 88 -c 2 -a 0 -i 15 -k RTR
r -t 5.038326450 -s 4 -d -1 -p undefined -e 88 -c 2 -a 0 -i 15 -k RTR
r -t 5.038326450 -s 1 -d -1 -p undefined -e 88 -c 2 -a 0 -i 15 -k RTR
+ -t 5.370833419 -s 2 -d -1 -p undefined -e 56 -c 2 -a 0 -i 16 -k RTR 
- -t 5.370833419 -s 2 -d -1 -p undefined -e 56 -c 2 -a 0 -i 16 -k RTR
h -t 5.370833419 -s 2 -d -1 -p undefined -e 56 -c 2 -a 0 -i 16 -k RTR
r -t 5.372426086 -s 1 -d -1 -p undefined -e 56 -c 2 -a 0 -i 16 -k RTR
+ -t 5.387212640 -s 3 -d -1 -p undefined -e 64 -c 2 -a 0 -i 17 -k RTR 
- -t 5.387212640 -s 3 -d -1 -p undefined -e 64 -c 2 -a 0 -i 17 -k RTR
h -t 5.387212640 -s 3 -d -1 -p undefined -e 64 -c 2 -a 0 -i 17 -k RTR
r -t 5.388889347 -s 1 -d -1 -p undefined -e 64 -c 2 -a 0 -i 17 -k RTR
r -t 5.388889347 -s 4 -d -1 -p undefined -e 64 -c 2 -a 0 -i 17 -k RTR
+ -t 5.475649602 -s 1 -d -1 -p undefined -e 56 -c 2 -a 0 -i 18 -k RTR 
- -t 5.475649602 -s 1 -d -1 -p undefined -e 56 -c 2 -a 0 -i 18 -k RTR
h -t 5.475649602 -s 1 -d -1 -p undefined -e 56 -c 2 -a 0 -i 18 -k RTR
r -t 5.477202268 -s 2 -d -1 -p undefined -e 56 -c 2 -a 0 -i 18 -k RTR
r -t 5.477202309 -s 3 -d -1 -p undefined -e 56 -c 2 -a 0 -i 18 -k RTR
r -t 5.477202309 -s 0 -d -1 -p undefined -e 56 -c 2 -a 0 -i 18 -k RTR
+ -t 5.720015974 -s 1 -d -1 -p undefined -e 68 -c 2 -a 0 -i 19 -k RTR 
- -t 5.720015974 -s 1 -d -1 -p undefined -e 68 -c 2 -a 0 -i 19 -k RTR
h -t 5.720015974 -s 1 -d -1 -p undefined -e 68 -c 2 -a 0 -i 19 -k RTR
r -t 5.721464641 -s 2 -d -1 -p undefined -e 68 -c 2 -a 0 -i 19 -k RTR
r -t 5.721464681 -s 3 -d -1 -p undefined -e 68 -c 2 -a 0 -i 19 -k RTR
r -t 5.721464681 -s 0 -d -1 -p undefined -e 68 -c 2 -a 0 -i 19 -k RTR
+ -t 5.781640355 -s 4 -d -1 -p undefined -e 64 -c 2 -a 0 -i 20 -k RTR 
- -t 5.781640355 -s 4 -d -1 -p undefined -e 64 -c 2 -a 0 -i 20 -k RTR
h -t 5.781640355 -s 4 -d -1 -p undefined -e 64 -c 2 -a 0 -i 20 -k RTR
r -t 5.782897063 -s 3 -d -1 -p undefined -e 64 -c 2 -a 0 -i 20 -k RTR
r -t 5.782897063 -s 0 -d -1 -p undefined -e 64 -c 2 -a 0 -i 20 -k RTR
+ -t 6.758900203 -s 0 -d -1 -p undefined -e 64 -c 2 -a 0 -i 21 -k RTR 
- -t 6.758900203 -s 0 -d -1 -p undefined -e 64 -c 2 -a 0 -i 21 -k RTR
h -t 6.758900203 -s 0 -d -1 -p undefined -e 64 -c 2 -a 0 -i 21 -k RTR
r -t 6.760116910 -s 4 -d -1 -p undefined -e 64 -c 2 -a 0 -i 21 -k RTR
r -t 6.760116910 -s 1 -d -1 -p undefined -e 64 -c 2 -a 0 -i 21 -k RTR
+ -t 6.892480577 -s 2 -d -1 -p undefined -e 56 -c 2 -a 0 -i 22 -k RTR 
- -t 6.892480577 -s 2 -d -1 -p undefined -e 56 -c 2 -a 0 -i 22 -k RTR
h -t 6.892480577 -s 2 -d -1 -p undefined -e 56 -c 2 -a 0 -i 22 -k RTR
r -t 6.893813243 -s 1 -d -1 -p undefined -e 56 -c 2 -a 0 -i 22 -k RTR
+ -t 7.144180225 -s 3 -d -1 -p undefined -e 64 -c 2 -a 0 -i 23 -k RTR 
- -t 7.144180225 -s 3 -d -1 -p undefined -e 64 -c 2 -a 0 -i 23 -k RTR
h -t 7.144180225 -s 3 -d -1 -p undefined -e 64 -c 2 -a 0 -i 23 -k RTR
r -t 7.145756932 -s 1 -d -1 -p undefined -e 64 -c 2 -a 0 -i 23 -k RTR
r -t 7.145756932 -s 4 -d -1 -p undefined -e 64 -c 2 -a 0 -i 23 -k RTR
+ -t 7.749511312 -s 1 -d -1 -p undefined -e 68 -c 2 -a 0 -i 24 -k RTR 
- -t 7.749511312 -s 1 -d -1 -p undefined -e 68 -c 2 -a 0 -i 24 -k RTR
h -t 7.749511312 -s 1 -d -1 -p undefined -e 68 -c 2 -a 0 -i 24 -k RTR
r -t 7.750619978 -s 2 -d -1 -p undefined -e 68 -c 2 -a 0 -i 24 -k RTR
r -t 7.750620019 -s 3 -d -1 -p undefined -e 68 -c 2 -a 0 -i 24 -k RTR
r -t 7.750620019 -s 0 -d -1 -p undefined -e 68 -c 2 -a 0 -i 24 -k RTR
+ -t 8.000211580 -s 4 -d -1 -p undefined -e 64 -c 2 -a 0 -i 25 -k RTR 
- -t 8.000211580 -s 4 -d -1 -p undefined -e 64 -c 2 -a 0 -i 25 -k RTR
h -t 8.000211580 -s 4 -d -1 -p undefined -e 64 -c 2 -a 0 -i 25 -k RTR
r -t 8.001808288 -s 3 -d -1 -p undefined -e 64 -c 2 -a 0 -i 25 -k RTR
r -t 8.001808288 -s 0 -d -1 -p undefined -e 64 -c 2 -a 0 -i 25 -k RTR
+ -t 8.722968437 -s 2 -d -1 -p undefined -e 56 -c 2 -a 0 -i 26 -k RTR 
- -t 8.722968437 -s 2 -d -1 -p undefined -e 56 -c 2 -a 0 -i 26 -k RTR
h -t 8.722968437 -s 2 -d -1 -p undefined -e 56 -c 2 -a 0 -i 26 -k RTR
r -t 8.724001103 -s 1 -d -1 -p undefined -e 56 -c 2 -a 0 -i 26 -k RTR
+ -t 8.887016868 -s 3 -d -1 -p undefined -e 64 -c 2 -a 0 -i 27 -k RTR 
- -t 8.887016868 -s 3 -d -1 -p undefined -e 64 -c 2 -a 0 -i 27 -k RTR
h -t 8.887016868 -s 3 -d -1 -p undefined -e 64 -c 2 -a 0 -i 27 -k RTR
r -t 8.888533575 -s 1 -d -1 -p undefined -e 64 -c 2 -a 0 -i 27 -k RTR
r -t 8.888533575 -s 4 -d -1 -p undefined -e 64 -c 2 -a 0 -i 27 -k RTR
+ -t 9.046064979 -s 0 -d -1 -p undefined -e 64 -c 2 -a 0 -i 28 -k RTR 
- -t 9.046064979 -s 0 -d -1 -p undefined -e 64 -c 2 -a 0 -i 28 -k RTR
h -t 9.046064979 -s 0 -d -1 -p undefined -e 64 -c 2 -a 0 -i 28 -k RTR
r -t 9.047621686 -s 4 -d -1 -p undefined -e 64 -c 2 -a 0 -i 28 -k RTR
r -t 9.047621686 -s 1 -d -1 -p undefined -e 64 -c 2 -a 0 -i 28 -k RTR
+ -t 9.472410214 -s 1 -d -1 -p undefined -e 68 -c 2 -a 0 -i 29 -k RTR 
- -t 9.472410214 -s 1 -d -1 -p undefined -e 68 -c 2 -a 0 -i 29 -k RTR
h -t 9.472410214 -s 1 -d -1 -p undefined -e 68 -c 2 -a 0 -i 29 -k RTR
r -t 9.473758881 -s 2 -d -1 -p undefined -e 68 -c 2 -a 0 -i 29 -k RTR
r -t 9.473758921 -s 3 -d -1 -p undefined -e 68 -c 2 -a 0 -i 29 -k RTR
r -t 9.473758921 -s 0 -d -1 -p undefined -e 68 -c 2 -a 0 -i 29 -k RTR
+ -t 9.615046551 -s 0 -d -1 -p undefined -e 56 -c 2 -a 0 -i 30 -k RTR 
- -t 9.615046551 -s 0 -d -1 -p undefined -e 56 -c 2 -a 0 -i 30 -k RTR
h -t 9.615046551 -s 0 -d -1 -p undefined -e 56 -c 2 -a 0 -i 30 -k RTR
r -t 9.616279258 -s 4 -d -1 -p undefined -e 56 -c 2 -a 0 -i 30 -k RTR
r -t 9.616279258 -s 1 -d -1 -p undefined -e 56 -c 2 -a 0 -i 30 -k RTR
+ -t 9.668159163 -s 1 -d -1 -p undefined -e 84 -c 2 -a 0 -i 31 -k RTR 
- -t 9.668159163 -s 1 -d -1 -p undefined -e 84 -c 2 -a 0 -i 31 -k RTR
h -t 9.668159163 -s 1 -d -1 -p undefined -e 84 -c 2 -a 0 -i 31 -k RTR
r -t 9.669635830 -s 2 -d -1 -p undefined -e 84 -c 2 -a 0 -i 31 -k RTR
r -t 9.669635870 -s 3 -d -1 -p undefined -e 84 -c 2 -a 0 -i 31 -k RTR
r -t 9.669635870 -s 0 -d -1 -p undefined -e 84 -c 2 -a 0 -i 31 -k RTR
+ -t 9.803458031 -s 4 -d -1 -p undefined -e 64 -c 2 -a 0 -i 32 -k RTR 
- -t 9.803458031 -s 4 -d -1 -p undefined -e 64 -c 2 -a 0 -i 32 -k RTR
h -t 9.803458031 -s 4 -d -1 -p undefined -e 64 -c 2 -a 0 -i 32 -k RTR
r -t 9.804714738 -s 3 -d -1 -p undefined -e 64 -c 2 -a 0 -i 32 -k RTR
r -t 9.804714738 -s 0 -d -1 -p undefined -e 64 -c 2 -a 0 -i 32 -k RTR
+ -t 10.139595300 -s 0 -d -1 -p undefined -e 60 -c 2 -a 0 -i 33 -k RTR 
- -t 10.139595300 -s 0 -d -1 -p undefined -e 60 -c 2 -a 0 -i 33 -k RTR
h -t 10.139595300 -s 0 -d -1 -p undefined -e 60 -c 2 -a 0 -i 33 -k RTR
r -t 10.141140007 -s 4 -d -1 -p undefined -e 60 -c 2 -a 0 -i 33 -k RTR
r -t 10.141140007 -s 1 -d -1 -p undefined -e 60 -c 2 -a 0 -i 33 -k RTR
+ -t 10.756957950 -s 0 -d -1 -p undefined -e 64 -c 2 -a 0 -i 34 -k RTR 
- -t 10.756957950 -s 0 -d -1 -p undefined -e 64 -c 2 -a 0 -i 34 -k RTR
h -t 10.756957950 -s 0 -d -1 -p undefined -e 64 -c 2 -a 0 -i 34 -k RTR
r -t 10.758174657 -s 4 -d -1 -p undefined -e 64 -c 2 -a 0 -i 34 -k RTR
r -t 10.758174657 -s 1 -d -1 -p undefined -e 64 -c 2 -a 0 -i 34 -k RTR
+ -t 10.932860288 -s 3 -d -1 -p undefined -e 64 -c 2 -a 0 -i 35 -k RTR 
- -t 10.932860288 -s 3 -d -1 -p undefined -e 64 -c 2 -a 0 -i 35 -k RTR
h -t 10.932860288 -s 3 -d -1 -p undefined -e 64 -c 2 -a 0 -i 35 -k RTR
r -t 10.934476995 -s 1 -d -1 -p undefined -e 64 -c 2 -a 0 -i 35 -k RTR
r -t 10.934476995 -s 4 -d -1 -p undefined -e 64 -c 2 -a 0 -i 35 -k RTR
+ -t 10.983689185 -s 2 -d -1 -p undefined -e 56 -c 2 -a 0 -i 36 -k RTR 
- -t 10.983689185 -s 2 -d -1 -p undefined -e 56 -c 2 -a 0 -i 36 -k RTR
h -t 10.983689185 -s 2 -d -1 -p undefined -e 56 -c 2 -a 0 -i 36 -k RTR
r -t 10.984701851 -s 1 -d -1 -p undefined -e 56 -c 2 -a 0 -i 36 -k RTR
+ -t 11.242031289 -s 4 -d -1 -p undefined -e 64 -c 2 -a 0 -i 37 -k RTR 
- -t 11.242031289 -s 4 -d -1 -p undefined -e 64 -c 2 -a 0 -i 37 -k RTR
h -t 11.242031289 -s 4 -d -1 -p undefined -e 64 -c 2 -a 0 -i 37 -k RTR
r -t 11.243447996 -s 3 -d -1 -p undefined -e 64 -c 2 -a 0 -i 37 -k RTR
r -t 11.243447996 -s 0 -d -1 -p undefined -e 64 -c 2 -a 0 -i 37 -k RTR
+ -t 11.342608559 -s 1 -d -1 -p undefined -e 68 -c 2 -a 0 -i 38 -k RTR 
- -t 11.342608559 -s 1 -d -1 -p undefined -e 68 -c 2 -a 0 -i 38 -k RTR
h -t 11.342608559 -s 1 -d -1 -p undefined -e 68 -c 2 -a 0 -i 38 -k RTR
r -t 11.344197225 -s 2 -d -1 -p undefined -e 68 -c 2 -a 0 -i 38 -k RTR
r -t 11.344197266 -s 3 -d -1 -p undefined -e 68 -c 2 -a 0 -i 38 -k RTR
r -t 11.344197266 -s 0 -d -1 -p undefined -e 68 -c 2 -a 0 -i 38 -k RTR
+ -t 12.330446650 -s 3 -d -1 -p undefined -e 64 -c 2 -a 0 -i 39 -k RTR 
- -t 12.330446650 -s 3 -d -1 -p undefined -e 64 -c 2 -a 0 -i 39 -k RTR
h -t 12.330446650 -s 3 -d -1 -p undefined -e 64 -c 2 -a 0 -i 39 -k RTR
r -t 12.331523357 -s 1 -d -1 -p undefined -e 64 -c 2 -a 0 -i 39 -k RTR
r -t 12.331523357 -s 4 -d -1 -p undefined -e 64 -c 2 -a 0 -i 39 -k RTR
+ -t 12.335211056 -s 2 -d -1 -p undefined -e 56 -c 2 -a 0 -i 40 -k RTR 
- -t 12.335211056 -s 2 -d -1 -p undefined -e 56 -c 2 -a 0 -i 40 -k RTR
h -t 12.335211056 -s 2 -d -1 -p undefined -e 56 -c 2 -a 0 -i 40 -k RTR
r -t 12.336543723 -s 1 -d -1 -p undefined -e 56 -c 2 -a 0 -i 40 -k RTR
+ -t 12.563207812 -s 0 -d -1 -p undefined -e 64 -c 2 -a 0 -i 41 -k RTR 
- -t 12.563207812 -s 0 -d -1 -p undefined -e 64 -c 2 -a 0 -i 41 -k RTR
h -t 12.563207812 -s 0 -d -1 -p undefined -e 64 -c 2 -a 0 -i 41 -k RTR
r -t 12.564684519 -s 4 -d -1 -p undefined -e 64 -c 2 -a 0 -i 41 -k RTR
r -t 12.564684519 -s 1 -d -1 -p undefined -e 64 -c 2 -a 0 -i 41 -k RTR
+ -t 13.218996748 -s 1 -d -1 -p undefined -e 68 -c 2 -a 0 -i 42 -k RTR 
- -t 13.218996748 -s 1 -d -1 -p undefined -e 68 -c 2 -a 0 -i 42 -k RTR
h -t 13.218996748 -s 1 -d -1 -p undefined -e 68 -c 2 -a 0 -i 42 -k RTR
r -t 13.220665414 -s 2 -d -1 -p undefined -e 68 -c 2 -a 0 -i 42 -k RTR
r -t 13.220665455 -s 3 -d -1 -p undefined -e 68 -c 2 -a 0 -i 42 -k RTR
r -t 13.220665455 -s 0 -d -1 -p undefined -e 68 -c 2 -a 0 -i 42 -k RTR
+ -t 13.443751835 -s 4 -d -1 -p undefined -e 64 -c 2 -a 0 -i 43 -k RTR 
- -t 13.443751835 -s 4 -d -1 -p undefined -e 64 -c 2 -a 0 -i 43 -k RTR
h -t 13.443751835 -s 4 -d -1 -p undefined -e 64 -c 2 -a 0 -i 43 -k RTR
r -t 13.445168543 -s 3 -d -1 -p undefined -e 64 -c 2 -a 0 -i 43 -k RTR
r -t 13.445168543 -s 0 -d -1 -p undefined -e 64 -c 2 -a 0 -i 43 -k RTR
+ -t 14.141387252 -s 1 -d -1 -p undefined -e 60 -c 2 -a 0 -i 44 -k RTR 
- -t 14.141387252 -s 1 -d -1 -p undefined -e 60 -c 2 -a 0 -i 44 -k RTR
h -t 14.141387252 -s 1 -d -1 -p undefined -e 60 -c 2 -a 0 -i 44 -k RTR
r -t 14.142531919 -s 2 -d -1 -p undefined -e 60 -c 2 -a 0 -i 44 -k RTR
r -t 14.142531959 -s 3 -d -1 -p undefined -e 60 -c 2 -a 0 -i 44 -k RTR
r -t 14.142531959 -s 0 -d -1 -p undefined -e 60 -c 2 -a 0 -i 44 -k RTR
+ -t 14.456595809 -s 2 -d -1 -p undefined -e 56 -c 2 -a 0 -i 45 -k RTR 
- -t 14.456595809 -s 2 -d -1 -p undefined -e 56 -c 2 -a 0 -i 45 -k RTR
h -t 14.456595809 -s 2 -d -1 -p undefined -e 56 -c 2 -a 0 -i 45 -k RTR
r -t 14.457948476 -s 1 -d -1 -p undefined -e 56 -c 2 -a 0 -i 45 -k RTR
+ -t 14.509954297 -s 3 -d -1 -p undefined -e 64 -c 2 -a 0 -i 46 -k RTR 
- -t 14.509954297 -s 3 -d -1 -p undefined -e 64 -c 2 -a 0 -i 46 -k RTR
h -t 14.509954297 -s 3 -d -1 -p undefined -e 64 -c 2 -a 0 -i 46 -k RTR
r -t 14.511131004 -s 1 -d -1 -p undefined -e 64 -c 2 -a 0 -i 46 -k RTR
r -t 14.511131004 -s 4 -d -1 -p undefined -e 64 -c 2 -a 0 -i 46 -k RTR
+ -t 14.561679822 -s 0 -d -1 -p undefined -e 116 -c 2 -a 0 -i 47 -k RTR 
- -t 14.561679822 -s 0 -d -1 -p undefined -e 116 -c 2 -a 0 -i 47 -k RTR
h -t 14.561679822 -s 0 -d -1 -p undefined -e 116 -c 2 -a 0 -i 47 -k RTR
r -t 14.563652529 -s 4 -d -1 -p undefined -e 116 -c 2 -a 0 -i 47 -k RTR
r -t 14.563652529 -s 1 -d -1 -p undefined -e 116 -c 2 -a 0 -i 47 -k RTR
+ -t 14.669547829 -s 1 -d -1 -p undefined -e 92 -c 2 -a 0 -i 48 -k RTR 
- -t 14.669547829 -s 1 -d -1 -p undefined -e 92 -c 2 -a 0 -i 48 -k RTR
h -t 14.669547829 -s 1 -d -1 -p undefined -e 92 -c 2 -a 0 -i 48 -k RTR
r -t 14.671088496 -s 2 -d -1 -p undefined -e 92 -c 2 -a 0 -i 48 -k RTR
r -t 14.671088536 -s 3 -d -1 -p undefined -e 92 -c 2 -a 0 -i 48 -k RTR
r -t 14.671088536 -s 0 -d -1 -p undefined -e 92 -c 2 -a 0 -i 48 -k RTR
+ -t 15.153573801 -s 4 -d -1 -p undefined -e 64 -c 2 -a 0 -i 49 -k RTR 
- -t 15.153573801 -s 4 -d -1 -p undefined -e 64 -c 2 -a 0 -i 49 -k RTR
h -t 15.153573801 -s 4 -d -1 -p undefined -e 64 -c 2 -a 0 -i 49 -k RTR
r -t 15.154670508 -s 3 -d -1 -p undefined -e 64 -c 2 -a 0 -i 49 -k RTR
r -t 15.154670508 -s 0 -d -1 -p undefined -e 64 -c 2 -a 0 -i 49 -k RTR
+ -t 16.152471722 -s 3 -d -1 -p undefined -e 64 -c 2 -a 0 -i 50 -k RTR 
- -t 16.152471722 -s 3 -d -1 -p undefined -e 64 -c 2 -a 0 -i 50 -k RTR
h -t 16.152471722 -s 3 -d -1 -p undefined -e 64 -c 2 -a 0 -i 50 -k RTR
r -t 16.153708429 -s 1 -d -1 -p undefined -e 64 -c 2 -a 0 -i 50 -k RTR
r -t 16.153708429 -s 4 -d -1 -p undefined -e 64 -c 2 -a 0 -i 50 -k RTR
+ -t 16.221214809 -s 1 -d -1 -p undefined -e 68 -c 2 -a 0 -i 51 -k RTR 
- -t 16.221214809 -s 1 -d -1 -p undefined -e 68 -c 2 -a 0 -i 51 -k RTR
h -t 16.221214809 -s 1 -d -1 -p undefined -e 68 -c 2 -a 0 -i 51 -k RTR
r -t 16.222743476 -s 2 -d -1 -p undefined -e 68 -c 2 -a 0 -i 51 -k RTR
r -t 16.222743516 -s 3 -d -1 -p undefined -e 68 -c 2 -a 0 -i 51 -k RTR
r -t 16.222743516 -s 0 -d -1 -p undefined -e 68 -c 2 -a 0 -i 51 -k RTR
+ -t 16.439719231 -s 0 -d -1 -p undefined -e 64 -c 2 -a 0 -i 52 -k RTR 
- -t 16.439719231 -s 0 -d -1 -p undefined -e 64 -c 2 -a 0 -i 52 -k RTR
h -t 16.439719231 -s 0 -d -1 -p undefined -e 64 -c 2 -a 0 -i 52 -k RTR
r -t 16.441015938 -s 4 -d -1 -p undefined -e 64 -c 2 -a 0 -i 52 -k RTR
r -t 16.441015938 -s 1 -d -1 -p undefined -e 64 -c 2 -a 0 -i 52 -k RTR
+ -t 16.462161247 -s 2 -d -1 -p undefined -e 56 -c 2 -a 0 -i 53 -k RTR 
- -t 16.462161247 -s 2 -d -1 -p undefined -e 56 -c 2 -a 0 -i 53 -k RTR
h -t 16.462161247 -s 2 -d -1 -p undefined -e 56 -c 2 -a 0 -i 53 -k RTR
r -t 16.463613914 -s 1 -d -1 -p undefined -e 56 -c 2 -a 0 -i 53 -k RTR
+ -t 17.057302118 -s 4 -d -1 -p undefined -e 64 -c 2 -a 0 -i 54 -k RTR 
- -t 17.057302118 -s 4 -d -1 -p undefined -e 64 -c 2 -a 0 -i 54 -k RTR
h -t 17.057302118 -s 4 -d -1 -p undefined -e 64 -c 2 -a 0 -i 54 -k RTR
r -t 17.058618825 -s 3 -d -1 -p undefined -e 64 -c 2 -a 0 -i 54 -k RTR
r -t 17.058618825 -s 0 -d -1 -p undefined -e 64 -c 2 -a 0 -i 54 -k RTR
+ -t 18.088505511 -s 3 -d -1 -p undefined -e 64 -c 2 -a 0 -i 55 -k RTR 
- -t 18.088505511 -s 3 -d -1 -p undefined -e 64 -c 2 -a 0 -i 55 -k RTR
h -t 18.088505511 -s 3 -d -1 -p undefined -e 64 -c 2 -a 0 -i 55 -k RTR
r -t 18.090042218 -s 1 -d -1 -p undefined -e 64 -c 2 -a 0 -i 55 -k RTR
r -t 18.090042218 -s 4 -d -1 -p undefined -e 64 -c 2 -a 0 -i 55 -k RTR
+ -t 18.119332261 -s 0 -d -1 -p undefined -e 64 -c 2 -a 0 -i 56 -k RTR 
- -t 18.119332261 -s 0 -d -1 -p undefined -e 64 -c 2 -a 0 -i 56 -k RTR
h -t 18.119332261 -s 0 -d -1 -p undefined -e 64 -c 2 -a 0 -i 56 -k RTR
r -t 18.120948968 -s 4 -d -1 -p undefined -e 64 -c 2 -a 0 -i 56 -k RTR
r -t 18.120948968 -s 1 -d -1 -p undefined -e 64 -c 2 -a 0 -i 56 -k RTR
+ -t 18.252722783 -s 1 -d -1 -p undefined -e 68 -c 2 -a 0 -i 57 -k RTR 
- -t 18.252722783 -s 1 -d -1 -p undefined -e 68 -c 2 -a 0 -i 57 -k RTR
h -t 18.252722783 -s 1 -d -1 -p undefined -e 68 -c 2 -a 0 -i 57 -k RTR
r -t 18.254051449 -s 2 -d -1 -p undefined -e 68 -c 2 -a 0 -i 57 -k RTR
r -t 18.254051490 -s 3 -d -1 -p undefined -e 68 -c 2 -a 0 -i 57 -k RTR
r -t 18.254051490 -s 0 -d -1 -p undefined -e 68 -c 2 -a 0 -i 57 -k RTR
+ -t 18.450601441 -s 4 -d -1 -p undefined -e 64 -c 2 -a 0 -i 58 -k RTR 
- -t 18.450601441 -s 4 -d -1 -p undefined -e 64 -c 2 -a 0 -i 58 -k RTR
h -t 18.450601441 -s 4 -d -1 -p undefined -e 64 -c 2 -a 0 -i 58 -k RTR
r -t 18.451678148 -s 3 -d -1 -p undefined -e 64 -c 2 -a 0 -i 58 -k RTR
r -t 18.451678148 -s 0 -d -1 -p undefined -e 64 -c 2 -a 0 -i 58 -k RTR
+ -t 18.525451263 -s 2 -d -1 -p undefined -e 56 -c 2 -a 0 -i 59 -k RTR 
- -t 18.525451263 -s 2 -d -1 -p undefined -e 56 -c 2 -a 0 -i 59 -k RTR
h -t 18.525451263 -s 2 -d -1 -p undefined -e 56 -c 2 -a 0 -i 59 -k RTR
r -t 18.526643929 -s 1 -d -1 -p undefined -e 56 -c 2 -a 0 -i 59 -k RTR
+ -t 18.913164029 -s 1 -d -1 -p undefined -e 60 -c 2 -a 0 -i 60 -k RTR 
- -t 18.913164029 -s 1 -d -1 -p undefined -e 60 -c 2 -a 0 -i 60 -k RTR
h -t 18.913164029 -s 1 -d -1 -p undefined -e 60 -c 2 -a 0 -i 60 -k RTR
r -t 18.914548696 -s 2 -d -1 -p undefined -e 60 -c 2 -a 0 -i 60 -k RTR
r -t 18.914548736 -s 3 -d -1 -p undefined -e 60 -c 2 -a 0 -i 60 -k RTR
r -t 18.914548736 -s 0 -d -1 -p undefined -e 60 -c 2 -a 0 -i 60 -k RTR
+ -t 19.201926391 -s 0 -d -1 -p undefined -e 84 -c 2 -a 0 -i 61 -k RTR 
- -t 19.201926391 -s 0 -d -1 -p undefined -e 84 -c 2 -a 0 -i 61 -k RTR
h -t 19.201926391 -s 0 -d -1 -p undefined -e 84 -c 2 -a 0 -i 61 -k RTR
r -t 19.203303098 -s 4 -d -1 -p undefined -e 84 -c 2 -a 0 -i 61 -k RTR
r -t 19.203303098 -s 1 -d -1 -p undefined -e 84 -c 2 -a 0 -i 61 -k RTR
+ -t 19.244096038 -s 1 -d -1 -p undefined -e 56 -c 2 -a 0 -i 62 -k RTR 
- -t 19.244096038 -s 1 -d -1 -p undefined -e 56 -c 2 -a 0 -i 62 -k RTR
h -t 19.244096038 -s 1 -d -1 -p undefined -e 56 -c 2 -a 0 -i 62 -k RTR
r -t 19.245488704 -s 2 -d -1 -p undefined -e 56 -c 2 -a 0 -i 62 -k RTR
r -t 19.245488745 -s 3 -d -1 -p undefined -e 56 -c 2 -a 0 -i 62 -k RTR
r -t 19.245488745 -s 0 -d -1 -p undefined -e 56 -c 2 -a 0 -i 62 -k RTR
+ -t 19.670498098 -s 3 -d -1 -p undefined -e 64 -c 2 -a 0 -i 63 -k RTR 
- -t 19.670498098 -s 3 -d -1 -p undefined -e 64 -c 2 -a 0 -i 63 -k RTR
h -t 19.670498098 -s 3 -d -1 -p undefined -e 64 -c 2 -a 0 -i 63 -k RTR
r -t 19.672114806 -s 1 -d -1 -p undefined -e 64 -c 2 -a 0 -i 63 -k RTR
r -t 19.672114806 -s 4 -d -1 -p undefined -e 64 -c 2 -a 0 -i 63 -k RTR
+ -t 19.849739168 -s 1 -d -1 -p undefined -e 68 -c 2 -a 0 -i 64 -k RTR 
- -t 19.849739168 -s 1 -d -1 -p undefined -e 68 -c 2 -a 0 -i 64 -k RTR
h -t 19.849739168 -s 1 -d -1 -p undefined -e 68 -c 2 -a 0 -i 64 -k RTR
r -t 19.850907834 -s 2 -d -1 -p undefined -e 68 -c 2 -a 0 -i 64 -k RTR
r -t 19.850907875 -s 3 -d -1 -p undefined -e 68 -c 2 -a 0 -i 64 -k RTR
r -t 19.850907875 -s 0 -d -1 -p undefined -e 68 -c 2 -a 0 -i 64 -k RTR
+ -t 20.073143565 -s 4 -d -1 -p undefined -e 64 -c 2 -a 0 -i 65 -k RTR 
- -t 20.073143565 -s 4 -d -1 -p undefined -e 64 -c 2 -a 0 -i 65 -k RTR
h -t 20.073143565 -s 4 -d -1 -p undefined -e 64 -c 2 -a 0 -i 65 -k RTR
r -t 20.074820272 -s 3 -d -1 -p undefined -e 64 -c 2 -a 0 -i 65 -k RTR
r -t 20.074820272 -s 0 -d -1 -p undefined -e 64 -c 2 -a 0 -i 65 -k RTR
+ -t 20.116499458 -s 0 -d -1 -p undefined -e 64 -c 2 -a 0 -i 66 -k RTR 
- -t 20.116499458 -s 0 -d -1 -p undefined -e 64 -c 2 -a 0 -i 66 -k RTR
h -t 20.116499458 -s 0 -d -1 -p undefined -e 64 -c 2 -a 0 -i 66 -k RTR
r -t 20.118056165 -s 4 -d -1 -p undefined -e 64 -c 2 -a 0 -i 66 -k RTR
r -t 20.118056165 -s 1 -d -1 -p undefined -e 64 -c 2 -a 0 -i 66 -k RTR
+ -t 20.163839428 -s 2 -d -1 -p undefined -e 56 -c 2 -a 0 -i 67 -k RTR 
- -t 20.163839428 -s 2 -d -1 -p undefined -e 56 -c 2 -a 0 -i 67 -k RTR
h -t 20.163839428 -s 2 -d -1 -p undefined -e 56 -c 2 -a 0 -i 67 -k RTR
r -t 20.165352094 -s 1 -d -1 -p undefined -e 56 -c 2 -a 0 -i 67 -k RTR
+ -t 21.489664721 -s 3 -d -1 -p undefined -e 64 -c 2 -a 0 -i 68 -k RTR 
- -t 21.489664721 -s 3 -d -1 -p undefined -e 64 -c 2 -a 0 -i 68 -k RTR
h -t 21.489664721 -s 3 -d -1 -p undefined -e 64 -c 2 -a 0 -i 68 -k RTR
r -t 21.491341428 -s 1 -d -1 -p undefined -e 64 -c 2 -a 0 -i 68 -k RTR
r -t 21.491341428 -s 4 -d -1 -p undefined -e 64 -c 2 -a 0 -i 68 -k RTR
+ -t 22.007825753 -s 1 -d -1 -p undefined -e 68 -c 2 -a 0 -i 69 -k RTR 
- -t 22.007825753 -s 1 -d -1 -p undefined -e 68 -c 2 -a 0 -i 69 -k RTR
h -t 22.007825753 -s 1 -d -1 -p undefined -e 68 -c 2 -a 0 -i 69 -k RTR
r -t 22.009414419 -s 2 -d -1 -p undefined -e 68 -c 2 -a 0 -i 69 -k RTR
r -t 22.009414460 -s 3 -d -1 -p undefined -e 68 -c 2 -a 0 -i 69 -k RTR
r -t 22.009414460 -s 0 -d -1 -p undefined -e 68 -c 2 -a 0 -i 69 -k RTR
+ -t 22.130530319 -s 0 -d -1 -p undefined -e 64 -c 2 -a 0 -i 70 -k RTR 
- -t 22.130530319 -s 0 -d -1 -p undefined -e 64 -c 2 -a 0 -i 70 -k RTR
h -t 22.130530319 -s 0 -d -1 -p undefined -e 64 -c 2 -a 0 -i 70 -k RTR
r -t 22.132007027 -s 4 -d -1 -p undefined -e 64 -c 2 -a 0 -i 70 -k RTR
r -t 22.132007027 -s 1 -d -1 -p undefined -e 64 -c 2 -a 0 -i 70 -k RTR
+ -t 22.198946184 -s 2 -d -1 -p undefined -e 56 -c 2 -a 0 -i 71 -k RTR 
- -t 22.198946184 -s 2 -d -1 -p undefined -e 56 -c 2 -a 0 -i 71 -k RTR
h -t 22.198946184 -s 2 -d -1 -p undefined -e 56 -c 2 -a 0 -i 71 -k RTR
r -t 22.200378851 -s 1 -d -1 -p undefined -e 56 -c 2 -a 0 -i 71 -k RTR
+ -t 22.285861662 -s 4 -d -1 -p undefined -e 64 -c 2 -a 0 -i 72 -k RTR 
- -t 22.285861662 -s 4 -d -1 -p undefined -e 64 -c 2 -a 0 -i 72 -k RTR
h -t 22.285861662 -s 4 -d -1 -p undefined -e 64 -c 2 -a 0 -i 72 -k RTR
r -t 22.287238369 -s 3 -d -1 -p undefined -e 64 -c 2 -a 0 -i 72 -k RTR
r -t 22.287238369 -s 0 -d -1 -p undefined -e 64 -c 2 -a 0 -i 72 -k RTR
+ -t 23.017046742 -s 3 -d -1 -p undefined -e 64 -c 2 -a 0 -i 73 -k RTR 
- -t 23.017046742 -s 3 -d -1 -p undefined -e 64 -c 2 -a 0 -i 73 -k RTR
h -t 23.017046742 -s 3 -d -1 -p undefined -e 64 -c 2 -a 0 -i 73 -k RTR
r -t 23.018623449 -s 1 -d -1 -p undefined -e 64 -c 2 -a 0 -i 73 -k RTR
r -t 23.018623449 -s 4 -d -1 -p undefined -e 64 -c 2 -a 0 -i 73 -k RTR
+ -t 23.609048060 -s 1 -d -1 -p undefined -e 96 -c 2 -a 0 -i 74 -k RTR 
- -t 23.609048060 -s 1 -d -1 -p undefined -e 96 -c 2 -a 0 -i 74 -k RTR
h -t 23.609048060 -s 1 -d -1 -p undefined -e 96 -c 2 -a 0 -i 74 -k RTR
r -t 23.610520726 -s 2 -d -1 -p undefined -e 96 -c 2 -a 0 -i 74 -k RTR
r -t 23.610520767 -s 3 -d -1 -p undefined -e 96 -c 2 -a 0 -i 74 -k RTR
r -t 23.610520767 -s 0 -d -1 -p undefined -e 96 -c 2 -a 0 -i 74 -k RTR
+ -t 23.675376964 -s 0 -d -1 -p undefined -e 60 -c 2 -a 0 -i 75 -k RTR 
- -t 23.675376964 -s 0 -d -1 -p undefined -e 60 -c 2 -a 0 -i 75 -k RTR
h -t 23.675376964 -s 0 -d -1 -p undefined -e 60 -c 2 -a 0 -i 75 -k RTR
r -t 23.677021671 -s 4 -d -1 -p undefined -e 60 -c 2 -a 0 -i 75 -k RTR
r -t 23.677021671 -s 1 -d -1 -p undefined -e 60 -c 2 -a 0 -i 75 -k RTR
+ -t 23.877529546 -s 0 -d -1 -p undefined -e 64 -c 2 -a 0 -i 76 -k RTR 
- -t 23.877529546 -s 0 -d -1 -p undefined -e 64 -c 2 -a 0 -i 76 -k RTR
h -t 23.877529546 -s 0 -d -1 -p undefined -e 64 -c 2 -a 0 -i 76 -k RTR
r -t 23.878606253 -s 4 -d -1 -p undefined -e 64 -c 2 -a 0 -i 76 -k RTR
r -t 23.878606253 -s 1 -d -1 -p undefined -e 64 -c 2 -a 0 -i 76 -k RTR
+ -t 23.905473306 -s 2 -d -1 -p undefined -e 56 -c 2 -a 0 -i 77 -k RTR 
- -t 23.905473306 -s 2 -d -1 -p undefined -e 56 -c 2 -a 0 -i 77 -k RTR
h -t 23.905473306 -s 2 -d -1 -p undefined -e 56 -c 2 -a 0 -i 77 -k RTR
r -t 23.906485973 -s 1 -d -1 -p undefined -e 56 -c 2 -a 0 -i 77 -k RTR
+ -t 24.090462739 -s 4 -d -1 -p undefined -e 64 -c 2 -a 0 -i 78 -k RTR 
- -t 24.090462739 -s 4 -d -1 -p undefined -e 64 -c 2 -a 0 -i 78 -k RTR
h -t 24.090462739 -s 4 -d -1 -p undefined -e 64 -c 2 -a 0 -i 78 -k RTR
r -t 24.091939446 -s 3 -d -1 -p undefined -e 64 -c 2 -a 0 -i 78 -k RTR
r -t 24.091939446 -s 0 -d -1 -p undefined -e 64 -c 2 -a 0 -i 78 -k RTR
+ -t 24.527559064 -s 0 -d -1 -p undefined -e 56 -c 2 -a 0 -i 79 -k RTR 
- -t 24.527559064 -s 0 -d -1 -p undefined -e 56 -c 2 -a 0 -i 79 -k RTR
h -t 24.527559064 -s 0 -d -1 -p undefined -e 56 -c 2 -a 0 -i 79 -k RTR
r -t 24.528911771 -s 4 -d -1 -p undefined -e 56 -c 2 -a 0 -i 79 -k RTR
r -t 24.528911771 -s 1 -d -1 -p undefined -e 56 -c 2 -a 0 -i 79 -k RTR
+ -t 24.582585292 -s 1 -d -1 -p undefined -e 56 -c 2 -a 0 -i 80 -k RTR 
- -t 24.582585292 -s 1 -d -1 -p undefined -e 56 -c 2 -a 0 -i 80 -k RTR
h -t 24.582585292 -s 1 -d -1 -p undefined -e 56 -c 2 -a 0 -i 80 -k RTR
r -t 24.583597959 -s 2 -d -1 -p undefined -e 56 -c 2 -a 0 -i 80 -k RTR
r -t 24.583597999 -s 3 -d -1 -p undefined -e 56 -c 2 -a 0 -i 80 -k RTR
r -t 24.583597999 -s 0 -d -1 -p undefined -e 56 -c 2 -a 0 -i 80 -k RTR
+ -t 24.755423400 -s 3 -d -1 -p undefined -e 64 -c 2 -a 0 -i 81 -k RTR 
- -t 24.755423400 -s 3 -d -1 -p undefined -e 64 -c 2 -a 0 -i 81 -k RTR
h -t 24.755423400 -s 3 -d -1 -p undefined -e 64 -c 2 -a 0 -i 81 -k RTR
r -t 24.756880107 -s 1 -d -1 -p undefined -e 64 -c 2 -a 0 -i 81 -k RTR
r -t 24.756880107 -s 4 -d -1 -p undefined -e 64 -c 2 -a 0 -i 81 -k RTR
+ -t 25.349482680 -s 4 -d -1 -p undefined -e 64 -c 2 -a 0 -i 82 -k RTR 
- -t 25.349482680 -s 4 -d -1 -p undefined -e 64 -c 2 -a 0 -i 82 -k RTR