Sconfig 0.00000 tap: on snoop: rts? on errs? on
Sconfig 0.00000 salvage: on !bd replies? on
Sconfig 0.00000 grat error: on grat reply: on
Sconfig 0.00000 $reply for props: on ring 0 search: on
Sconfig 0.00000 using MOBICACHE
M 0.00000 2 (89.24, 42.69, 0.00), (89.24, 42.69), 0.00
M 0.00000 3 (41.91, 28.21, 0.00), (41.91, 28.21), 0.00
M 0.00000 4 (59.54, 73.82, 0.00), (59.54, 73.82), 0.00
M 0.00000 5 (98.56, 50.38, 0.00), (98.56, 50.38), 0.00
M 0.00000 6 (14.02, 38.32, 0.00), (14.02, 38.32), 0.00
M 0.00000 7 (7.01, 46.69, 0.00), (7.01, 46.69), 0.00
M 0.00000 8 (65.33, 99.48, 0.00), (65.33, 99.48), 0.00
M 0.00000 9 (82.25, 15.48, 0.00), (82.25, 15.48), 0.00
M 0.00000 0 (0.00, 0.00, 0.00), (82.25, 15.48), 0.00
M 0.00000 1 (90.00, 90.00, 0.00), (82.25, 15.48), 0.00
s -t 0.000000000 -Hs 2 -Hd -2 -Ni 2 -Nx 89.24 -Ny 42.69 -Nz 0.00 -Ne -1.000000 -Nl AGT -Nw --- -Ma 0 -Md 0 -Ms 0 -Mt 0 -Is 2.0 -Id 1.0 -It cbr -Il 512 -If 2 -Ii 0 -Iv 32 -Pn cbr -Pi 0 -Pf 0 -Po 0 
r -t 0.000000000 -Hs 2 -Hd -2 -Ni 2 -Nx 89.24 -Ny 42.69 -Nz 0.00 -Ne -1.000000 -Nl RTR -Nw --- -Ma 0 -Md 0 -Ms 0 -Mt 0 -Is 2.0 -Id 1.0 -It cbr -Il 512 -If 2 -Ii 0 -Iv 32 -Pn cbr -Pi 0 -Pf 0 -Po 0 
s -t 0.000000000 -Hs 3 -Hd -2 -Ni 3 -Nx 41.91 -Ny 28.21 -Nz 0.00 -Ne -1.000000 -Nl AGT -Nw --- -Ma 0 -Md 0 -Ms 0 -Mt 0 -Is 3.0 -Id 1.0 -It cbr -Il 512 -If 2 -Ii 2 -Iv 32 -Pn cbr -Pi 0 -Pf 0 -Po 0 
r -t 0.000000000 -Hs 3 -Hd -2 -Ni 3 -Nx 41.91 -Ny 28.21 -Nz 0.00 -Ne -1.000000 -Nl RTR -Nw --- -Ma 0 -Md 0 -Ms 0 -Mt 0 -Is 3.0 -Id 1.0 -It cbr -Il 512 -If 2 -Ii 2 -Iv 32 -Pn cbr -Pi 0 -Pf 0 -Po 0 
s -t 0.000000000 -Hs 4 -Hd -2 -Ni 4 -Nx 59.54 -Ny 73.82 -Nz 0.00 -Ne -1.000000 -Nl AGT -Nw --- -Ma 0 -Md 0 -Ms 0 -Mt 0 -Is 4.0 -Id 1.0 -It cbr -Il 512 -If 2 -Ii 4 -Iv 32 -Pn cbr -Pi 0 -Pf 0 -Po 0 
r -t 0.000000000 -Hs 4 -Hd -2 -Ni 4 -Nx 59.54 -Ny 73.82 -Nz 0.00 -Ne -1.000000 -Nl RTR -Nw --- -Ma 0 -Md 0 -Ms 0 -Mt 0 -Is 4.0 -Id 1.0 -It cbr -Il 512 -If 2 -Ii 4 -Iv 32 -Pn cbr -Pi 0 -Pf 0 -Po 0 
s -t 0.000000000 -Hs 5 -Hd -2 -Ni 5 -Nx 98.56 -Ny 50.38 -Nz 0.00 -Ne -1.000000 -Nl AGT -Nw --- -Ma 0 -Md 0 -Ms 0 -Mt 0 -Is 5.0 -Id 1.0 -It cbr -Il 512 -If 2 -Ii 6 -Iv 32 -Pn cbr -Pi 0 -Pf 0 -Po 0 
r -t 0.000000000 -Hs 5 -Hd -2 -Ni 5 -Nx 98.56 -Ny 50.38 -Nz 0.00 -Ne -1.000000 -Nl RTR -Nw --- -Ma 0 -Md 0 -Ms 0 -Mt 0 -Is 5.0 -Id 1.0 -It cbr -Il 512 -If 2 -Ii 6 -Iv 32 -Pn cbr -Pi 0 -Pf 0 -Po 0 
s -t 0.000000000 -Hs 6 -Hd -2 -Ni 6 -Nx 14.02 -Ny 38.32 -Nz 0.00 -Ne -1.000000 -Nl AGT -Nw --- -Ma 0 -Md 0 -Ms 0 -Mt 0 -Is 6.0 -Id 1.0 -It cbr -Il 512 -If 2 -Ii 8 -Iv 32 -Pn cbr -Pi 0 -Pf 0 -Po 0 
r -t 0.000000000 -Hs 6 -Hd -2 -Ni 6 -Nx 14.02 -Ny 38.32 -Nz 0.00 -Ne -1.000000 -Nl RTR -Nw --- -Ma 0 -Md 0 -Ms 0 -Mt 0 -Is 6.0 -Id 1.0 -It cbr -Il 512 -If 2 -Ii 8 -Iv 32 -Pn cbr -Pi 0 -Pf 0 -Po 0 
s -t 0.000000000 -Hs 7 -Hd -2 -Ni 7 -Nx 7.01 -Ny 46.69 -Nz 0.00 -Ne -1.000000 -Nl AGT -Nw --- -Ma 0 -Md 0 -Ms 0 -Mt 0 -Is 7.0 -Id 1.0 -It cbr -Il 512 -If 2 -Ii 10 -Iv 32 -Pn cbr -Pi 0 -Pf 0 -Po 0 
r -t 0.000000000 -Hs 7 -Hd -2 -Ni 7 -Nx 7.01 -Ny 46.69 -Nz 0.00 -Ne -1.000000 -Nl RTR -Nw --- -Ma 0 -Md 0 -Ms 0 -Mt 0 -Is 7.0 -Id 1.0 -It cbr -Il 512 -If 2 -Ii 10 -Iv 32 -Pn cbr -Pi 0 -Pf 0 -Po 0 
s -t 0.000000000 -Hs 8 -Hd -2 -Ni 8 -Nx 65.33 -Ny 99.48 -Nz 0.00 -Ne -1.000000 -Nl AGT -Nw --- -Ma 0 -Md 0 -Ms 0 -Mt 0 -Is 8.0 -Id 1.0 -It cbr -Il 512 -If 2 -Ii 12 -Iv 32 -Pn cbr -Pi 0 -Pf 0 -Po 0 
r -t 0.000000000 -Hs 8 -Hd -2 -Ni 8 -Nx 65.33 -Ny 99.48 -Nz 0.00 -Ne -1.000000 -Nl RTR -Nw --- -Ma 0 -Md 0 -Ms 0 -Mt 0 -Is 8.0 -Id 1.0 -It cbr -Il 512 -If 2 -Ii 12 -Iv 32 -Pn cbr -Pi 0 -Pf 0 -Po 0 
s -t 0.000000000 -Hs 9 -Hd -2 -Ni 9 -Nx 82.25 -Ny 15.48 -Nz 0.00 -Ne -1.000000 -Nl AGT -Nw --- -Ma 0 -Md 0 -Ms 0 -Mt 0 -Is 9.0 -Id 1.0 -It cbr -Il 512 -If 2 -Ii 14 -Iv 32 -Pn cbr -Pi 0 -Pf 0 -Po 0 
r -t 0.000000000 -Hs 9 -Hd -2 -Ni 9 -Nx 82.25 -Ny 15.48 -Nz 0.00 -Ne -1.000000 -Nl RTR -Nw --- -Ma 0 -Md 0 -Ms 0 -Mt 0 -Is 9.0 -Id 1.0 -It cbr -Il 512 -If 2 -Ii 14 -Iv 32 -Pn cbr -Pi 0 -Pf 0 -Po 0 
s -t 0.000427946 -Hs 5 -Hd -1 -Ni 5 -Nx 98.56 -Ny 50.38 -Nz 0.00 -Ne -1.000000 -Nl RTR -Nw --- -Ma 0 -Md 0 -Ms 0 -Mt 0 -Is 5.255 -Id 1.255 -It DSR -Il 32 -If 0 -Ii 7 -Iv 32 -P dsr -Ph 1 -Pq 1 -Ps 1 -Pp 0 -Pn 1 -Pl 0 -Pe 0->0 -Pw 0 -Pm 0 -Pc 0 -Pb 0->0 
s -t 0.001138082 -Hs 7 -Hd -1 -Ni 7 -Nx 7.01 -Ny 46.69 -Nz 0.00 -Ne -1.000000 -Nl RTR -Nw --- -Ma 0 -Md 0 -Ms 0 -Mt 0 -Is 7.255 -Id 1.255 -It DSR -Il 32 -If 0 -Ii 11 -Iv 32 -P dsr -Ph 1 -Pq 1 -Ps 1 -Pp 0 -Pn 1 -Pl 0 -Pe 0->0 -Pw 0 -Pm 0 -Pc 0 -Pb 0->0 
s -t 0.001641454 -Hs 4 -Hd -1 -Ni 4 -Nx 59.54 -Ny 73.82 -Nz 0.00 -Ne -1.000000 -Nl RTR -Nw --- -Ma 0 -Md 0 -Ms 0 -Mt 0 -Is 4.255 -Id 1.255 -It DSR -Il 32 -If 0 -Ii 5 -Iv 32 -P dsr -Ph 1 -Pq 1 -Ps 1 -Pp 0 -Pn 1 -Pl 0 -Pe 0->0 -Pw 0 -Pm 0 -Pc 0 -Pb 0->0 
r -t 0.001727986 -Hs 2 -Hd -1 -Ni 2 -Nx 89.24 -Ny 42.69 -Nz 0.00 -Ne -1.000000 -Nl RTR -Nw --- -Ma 0 -Md ffffffff -Ms 5 -Mt 800 -Is 5.255 -Id 1.255 -It DSR -Il 32 -If 0 -Ii 7 -Iv 32 -P dsr -Ph 1 -Pq 1 -Ps 1 -Pp 0 -Pn 1 -Pl 0 -Pe 0->0 -Pw 0 -Pm 0 -Pc 0 -Pb 0->0 
r -t 0.001728074 -Hs 9 -Hd -1 -Ni 9 -Nx 82.25 -Ny 15.48 -Nz 0.00 -Ne -1.000000 -Nl RTR -Nw --- -Ma 0 -Md ffffffff -Ms 5 -Mt 800 -Is 5.255 -Id 1.255 -It DSR -Il 32 -If 0 -Ii 7 -Iv 32 -P dsr -Ph 1 -Pq 1 -Ps 1 -Pp 0 -Pn 1 -Pl 0 -Pe 0->0 -Pw 0 -Pm 0 -Pc 0 -Pb 0->0 
r -t 0.001728081 -Hs 1 -Hd -1 -Ni 1 -Nx 90.00 -Ny 90.00 -Nz 0.00 -Ne -1.000000 -Nl RTR -Nw --- -Ma 0 -Md ffffffff -Ms 5 -Mt 800 -Is 5.255 -Id 1.255 -It DSR -Il 32 -If 0 -Ii 7 -Iv 32 -P dsr -Ph 1 -Pq 1 -Ps 1 -Pp 0 -Pn 1 -Pl 0 -Pe 0->0 -Pw 0 -Pm 0 -Pc 0 -Pb 0->0 
r -t 0.001728097 -Hs 4 -Hd -1 -Ni 4 -Nx 59.54 -Ny 73.82 -Nz 0.00 -Ne -1.000000 -Nl RTR -Nw --- -Ma 0 -Md ffffffff -Ms 5 -Mt 800 -Is 5.255 -Id 1.255 -It DSR -Il 32 -If 0 -Ii 7 -Iv 32 -P dsr -Ph 1 -Pq 1 -Ps 1 -Pp 0 -Pn 1 -Pl 0 -Pe 0->0 -Pw 0 -Pm 0 -Pc 0 -Pb 0->0 
r -t 0.001728143 -Hs 8 -Hd -1 -Ni 8 -Nx 65.33 -Ny 99.48 -Nz 0.00 -Ne -1.000000 -Nl RTR -Nw --- -Ma 0 -Md ffffffff -Ms 5 -Mt 800 -Is 5.255 -Id 1.255 -It DSR -Il 32 -If 0 -Ii 7 -Iv 32 -P dsr -Ph 1 -Pq 1 -Ps 1 -Pp 0 -Pn 1 -Pl 0 -Pe 0->0 -Pw 0 -Pm 0 -Pc 0 -Pb 0->0 
r -t 0.001728148 -Hs 3 -Hd -1 -Ni 3 -Nx 41.91 -Ny 28.21 -Nz 0.00 -Ne -1.000000 -Nl RTR -Nw --- -Ma 0 -Md ffffffff -Ms 5 -Mt 800 -Is 5.255 -Id 1.255 -It DSR -Il 32 -If 0 -Ii 7 -Iv 32 -P dsr -Ph 1 -Pq 1 -Ps 1 -Pp 0 -Pn 1 -Pl 0 -Pe 0->0 -Pw 0 -Pm 0 -Pc 0 -Pb 0->0 
r -t 0.001728230 -Hs 6 -Hd -1 -Ni 6 -Nx 14.02 -Ny 38.32 -Nz 0.00 -Ne -1.000000 -Nl RTR -Nw --- -Ma 0 -Md ffffffff -Ms 5 -Mt 800 -Is 5.255 -Id 1.255 -It DSR -Il 32 -If 0 -Ii 7 -Iv 32 -P dsr -Ph 1 -Pq 1 -Ps 1 -Pp 0 -Pn 1 -Pl 0 -Pe 0->0 -Pw 0 -Pm 0 -Pc 0 -Pb 0->0 
r -t 0.001728251 -Hs 7 -Hd -1 -Ni 7 -Nx 7.01 -Ny 46.69 -Nz 0.00 -Ne -1.000000 -Nl RTR -Nw --- -Ma 0 -Md ffffffff -Ms 5 -Mt 800 -Is 5.255 -Id 1.255 -It DSR -Il 32 -If 0 -Ii 7 -Iv 32 -P dsr -Ph 1 -Pq 1 -Ps 1 -Pp 0 -Pn 1 -Pl 0 -Pe 0->0 -Pw 0 -Pm 0 -Pc 0 -Pb 0->0 
r -t 0.001728315 -Hs 0 -Hd -1 -Ni 0 -Nx 0.00 -Ny 0.00 -Nz 0.00 -Ne -1.000000 -Nl RTR -Nw --- -Ma 0 -Md ffffffff -Ms 5 -Mt 800 -Is 5.255 -Id 1.255 -It DSR -Il 32 -If 0 -Ii 7 -Iv 32 -P dsr -Ph 1 -Pq 1 -Ps 1 -Pp 0 -Pn 1 -Pl 0 -Pe 0->0 -Pw 0 -Pm 0 -Pc 0 -Pb 0->0 
r -t 0.002818185 -Hs 8 -Hd -1 -Ni 8 -Nx 65.33 -Ny 99.48 -Nz 0.00 -Ne -1.000000 -Nl RTR -Nw --- -Ma 0 -Md ffffffff -Ms 4 -Mt 800 -Is 4.255 -Id 1.255 -It DSR -Il 32 -If 0 -Ii 5 -Iv 32 -P dsr -Ph 1 -Pq 1 -Ps 1 -Pp 0 -Pn 1 -Pl 0 -Pe 0->0 -Pw 0 -Pm 0 -Pc 0 -Pb 0->0 
r -t 0.002818212 -Hs 1 -Hd -1 -Ni 1 -Nx 90.00 -Ny 90.00 -Nz 0.00 -Ne -1.000000 -Nl RTR -Nw --- -Ma 0 -Md ffffffff -Ms 4 -Mt 800 -Is 4.255 -Id 1.255 -It DSR -Il 32 -If 0 -Ii 5 -Iv 32 -P dsr -Ph 1 -Pq 1 -Ps 1 -Pp 0 -Pn 1 -Pl 0 -Pe 0->0 -Pw 0 -Pm 0 -Pc 0 -Pb 0->0 
r -t 0.002818241 -Hs 2 -Hd -1 -Ni 2 -Nx 89.24 -Ny 42.69 -Nz 0.00 -Ne -1.000000 -Nl RTR -Nw --- -Ma 0 -Md ffffffff -Ms 4 -Mt 800 -Is 4.255 -Id 1.255 -It DSR -Il 32 -If 0 -Ii 5 -Iv 32 -P dsr -Ph 1 -Pq 1 -Ps 1 -Pp 0 -Pn 1 -Pl 0 -Pe 0->0 -Pw 0 -Pm 0 -Pc 0 -Pb 0->0 
r -t 0.002818249 -Hs 5 -Hd -1 -Ni 5 -Nx 98.56 -Ny 50.38 -Nz 0.00 -Ne -1.000000 -Nl RTR -Nw --- -Ma 0 -Md ffffffff -Ms 4 -Mt 800 -Is 4.255 -Id 1.255 -It DSR -Il 32 -If 0 -Ii 5 -Iv 32 -P dsr -Ph 1 -Pq 1 -Ps 1 -Pp 0 -Pn 1 -Pl 0 -Pe 0->0 -Pw 0 -Pm 0 -Pc 0 -Pb 0->0 
r -t 0.002818260 -Hs 3 -Hd -1 -Ni 3 -Nx 41.91 -Ny 28.21 -Nz 0.00 -Ne -1.000000 -Nl RTR -Nw --- -Ma 0 -Md ffffffff -Ms 4 -Mt 800 -Is 4.255 -Id 1.255 -It DSR -Il 32 -If 0 -Ii 5 -Iv 32 -P dsr -Ph 1 -Pq 1 -Ps 1 -Pp 0 -Pn 1 -Pl 0 -Pe 0->0 -Pw 0 -Pm 0 -Pc 0 -Pb 0->0 
r -t 0.002818290 -Hs 6 -Hd -1 -Ni 6 -Nx 14.02 -Ny 38.32 -Nz 0.00 -Ne -1.000000 -Nl RTR -Nw --- -Ma 0 -Md ffffffff -Ms 4 -Mt 800 -Is 4.255 -Id 1.255 -It DSR -Il 32 -If 0 -Ii 5 -Iv 32 -P dsr -Ph 1 -Pq 1 -Ps 1 -Pp 0 -Pn 1 -Pl 0 -Pe 0->0 -Pw 0 -Pm 0 -Pc 0 -Pb 0->0 
r -t 0.002818294 -Hs 7 -Hd -1 -Ni 7 -Nx 7.01 -Ny 46.69 -Nz 0.00 -Ne -1.000000 -Nl RTR -Nw --- -Ma 0 -Md ffffffff -Ms 4 -Mt 800 -Is 4.255 -Id 1.255 -It DSR -Il 32 -If 0 -Ii 5 -Iv 32 -P dsr -Ph 1 -Pq 1 -Ps 1 -Pp 0 -Pn 1 -Pl 0 -Pe 0->0 -Pw 0 -Pm 0 -Pc 0 -Pb 0->0 
r -t 0.002818306 -Hs 9 -Hd -1 -Ni 9 -Nx 82.25 -Ny 15.48 -Nz 0.00 -Ne -1.000000 -Nl RTR -Nw --- -Ma 0 -Md ffffffff -Ms 4 -Mt 800 -Is 4.255 -Id 1.255 -It DSR -Il 32 -If 0 -Ii 5 -Iv 32 -P dsr -Ph 1 -Pq 1 -Ps 1 -Pp 0 -Pn 1 -Pl 0 -Pe 0->0 -Pw 0 -Pm 0 -Pc 0 -Pb 0->0 
r -t 0.002818413 -Hs 0 -Hd -1 -Ni 0 -Nx 0.00 -Ny 0.00 -Nz 0.00 -Ne -1.000000 -Nl RTR -Nw --- -Ma 0 -Md ffffffff -Ms 4 -Mt 800 -Is 4.255 -Id 1.255 -It DSR -Il 32 -If 0 -Ii 5 -Iv 32 -P dsr -Ph 1 -Pq 1 -Ps 1 -Pp 0 -Pn 1 -Pl 0 -Pe 0->0 -Pw 0 -Pm 0 -Pc 0 -Pb 0->0 
s -t 0.003090791 -Hs 2 -Hd -1 -Ni 2 -Nx 89.24 -Ny 42.69 -Nz 0.00 -Ne -1.000000 -Nl RTR -Nw --- -Ma 0 -Md 0 -Ms 0 -Mt 0 -Is 2.255 -Id 1.255 -It DSR -Il 32 -If 0 -Ii 1 -Iv 32 -P dsr -Ph 1 -Pq 1 -Ps 1 -Pp 0 -Pn 1 -Pl 0 -Pe 0->0 -Pw 0 -Pm 0 -Pc 0 -Pb 0->0 
r -t 0.003608331 -Hs 6 -Hd -1 -Ni 6 -Nx 14.02 -Ny 38.32 -Nz 0.00 -Ne -1.000000 -Nl RTR -Nw --- -Ma 0 -Md ffffffff -Ms 7 -Mt 800 -Is 7.255 -Id 1.255 -It DSR -Il 32 -If 0 -Ii 11 -Iv 32 -P dsr -Ph 1 -Pq 1 -Ps 1 -Pp 0 -Pn 1 -Pl 0 -Pe 0->0 -Pw 0 -Pm 0 -Pc 0 -Pb 0->0 
r -t 0.003608426 -Hs 3 -Hd -1 -Ni 3 -Nx 41.91 -Ny 28.21 -Nz 0.00 -Ne -1.000000 -Nl RTR -Nw --- -Ma 0 -Md ffffffff -Ms 7 -Mt 800 -Is 7.255 -Id 1.255 -It DSR -Il 32 -If 0 -Ii 11 -Iv 32 -P dsr -Ph 1 -Pq 1 -Ps 1 -Pp 0 -Pn 1 -Pl 0 -Pe 0->0 -Pw 0 -Pm 0 -Pc 0 -Pb 0->0 
r -t 0.003608452 -Hs 0 -Hd -1 -Ni 0 -Nx 0.00 -Ny 0.00 -Nz 0.00 -Ne -1.000000 -Nl RTR -Nw --- -Ma 0 -Md ffffffff -Ms 7 -Mt 800 -Is 7.255 -Id 1.255 -It DSR -Il 32 -If 0 -Ii 11 -Iv 32 -P dsr -Ph 1 -Pq 1 -Ps 1 -Pp 0 -Pn 1 -Pl 0 -Pe 0->0 -Pw 0 -Pm 0 -Pc 0 -Pb 0->0 
r -t 0.003608491 -Hs 4 -Hd -1 -Ni 4 -Nx 59.54 -Ny 73.82 -Nz 0.00 -Ne -1.000000 -Nl RTR -Nw --- -Ma 0 -Md ffffffff -Ms 7 -Mt 800 -Is 7.255 -Id 1.255 -It DSR -Il 32 -If 0 -Ii 11 -Iv 32 -P dsr -Ph 1 -Pq 1 -Ps 1 -Pp 0 -Pn 1 -Pl 0 -Pe 0->0 -Pw 0 -Pm 0 -Pc 0 -Pb 0->0 
r -t 0.003608557 -Hs 8 -Hd -1 -Ni 8 -Nx 65.33 -Ny 99.48 -Nz 0.00 -Ne -1.000000 -Nl RTR -Nw --- -Ma 0 -Md ffffffff -Ms 7 -Mt 800 -Is 7.255 -Id 1.255 -It DSR -Il 32 -If 0 -Ii 11 -Iv 32 -P dsr -Ph 1 -Pq 1 -Ps 1 -Pp 0 -Pn 1 -Pl 0 -Pe 0->0 -Pw 0 -Pm 0 -Pc 0 -Pb 0->0 
r -t 0.003608566 -Hs 9 -Hd -1 -Ni 9 -Nx 82.25 -Ny 15.48 -Nz 0.00 -Ne -1.000000 -Nl RTR -Nw --- -Ma 0 -Md ffffffff -Ms 7 -Mt 800 -Is 7.255 -Id 1.255 -It DSR -Il 32 -If 0 -Ii 11 -Iv 32 -P dsr -Ph 1 -Pq 1 -Ps 1 -Pp 0 -Pn 1 -Pl 0 -Pe 0->0 -Pw 0 -Pm 0 -Pc 0 -Pb 0->0 
r -t 0.003608569 -Hs 2 -Hd -1 -Ni 2 -Nx 89.24 -Ny 42.69 -Nz 0.00 -Ne -1.000000 -Nl RTR -Nw --- -Ma 0 -Md ffffffff -Ms 7 -Mt 800 -Is 7.255 -Id 1.255 -It DSR -Il 32 -If 0 -Ii 11 -Iv 32 -P dsr -Ph 1 -Pq 1 -Ps 1 -Pp 0 -Pn 1 -Pl 0 -Pe 0->0 -Pw 0 -Pm 0 -Pc 0 -Pb 0->0 
r -t 0.003608600 -Hs 5 -Hd -1 -Ni 5 -Nx 98.56 -Ny 50.38 -Nz 0.00 -Ne -1.000000 -Nl RTR -Nw --- -Ma 0 -Md ffffffff -Ms 7 -Mt 800 -Is 7.255 -Id 1.255 -It DSR -Il 32 -If 0 -Ii 11 -Iv 32 -P dsr -Ph 1 -Pq 1 -Ps 1 -Pp 0 -Pn 1 -Pl 0 -Pe 0->0 -Pw 0 -Pm 0 -Pc 0 -Pb 0->0 
r -t 0.003608606 -Hs 1 -Hd -1 -Ni 1 -Nx 90.00 -Ny 90.00 -Nz 0.00 -Ne -1.000000 -Nl RTR -Nw --- -Ma 0 -Md ffffffff -Ms 7 -Mt 800 -Is 7.255 -Id 1.255 -It DSR -Il 32 -If 0 -Ii 11 -Iv 32 -P dsr -Ph 1 -Pq 1 -Ps 1 -Pp 0 -Pn 1 -Pl 0 -Pe 0->0 -Pw 0 -Pm 0 -Pc 0 -Pb 0->0 
s -t 0.004236567 -Hs 9 -Hd -1 -Ni 9 -Nx 82.25 -Ny 15.48 -Nz 0.00 -Ne -1.000000 -Nl RTR -Nw --- -Ma 0 -Md 0 -Ms 0 -Mt 0 -Is 9.255 -Id 1.255 -It DSR -Il 32 -If 0 -Ii 15 -Iv 32 -P dsr -Ph 1 -Pq 1 -Ps 1 -Pp 0 -Pn 1 -Pl 0 -Pe 0->0 -Pw 0 -Pm 0 -Pc 0 -Pb 0->0 
s -t 0.004308960 -Hs 1 -Hd 5 -Ni 1 -Nx 90.00 -Ny 90.00 -Nz 0.00 -Ne -1.000000 -Nl RTR -Nw --- -Ma 0 -Md 0 -Ms 0 -Mt 0 -Is 1.255 -Id 5.255 -It DSR -Il 44 -If 0 -Ii 16 -Iv 254 -P dsr -Ph 2 -Pq 0 -Ps 1 -Pp 1 -Pn 1 -Pl 2 -Pe 5->1 -Pw 0 -Pm 0 -Pc 0 -Pb 0->0 
r -t 0.004818609 -Hs 5 -Hd -1 -Ni 5 -Nx 98.56 -Ny 50.38 -Nz 0.00 -Ne -1.000000 -Nl RTR -Nw --- -Ma 0 -Md ffffffff -Ms 2 -Mt 800 -Is 2.255 -Id 1.255 -It DSR -Il 32 -If 0 -Ii 1 -Iv 32 -P dsr -Ph 1 -Pq 1 -Ps 1 -Pp 0 -Pn 1 -Pl 0 -Pe 0->0 -Pw 0 -Pm 0 -Pc 0 -Pb 0->0 
r -t 0.004818662 -Hs 9 -Hd -1 -Ni 9 -Nx 82.25 -Ny 15.48 -Nz 0.00 -Ne -1.000000 -Nl RTR -Nw --- -Ma 0 -Md ffffffff -Ms 2 -Mt 800 -Is 2.255 -Id 1.255 -It DSR -Il 32 -If 0 -Ii 1 -Iv 32 -P dsr -Ph 1 -Pq 1 -Ps 1 -Pp 0 -Pn 1 -Pl 0 -Pe 0->0 -Pw 0 -Pm 0 -Pc 0 -Pb 0->0 
r -t 0.004818712 -Hs 4 -Hd -1 -Ni 4 -Nx 59.54 -Ny 73.82 -Nz 0.00 -Ne -1.000000 -Nl RTR -Nw --- -Ma 0 -Md ffffffff -Ms 2 -Mt 800 -Is 2.255 -Id 1.255 -It DSR -Il 32 -If 0 -Ii 1 -Iv 32 -P dsr -Ph 1 -Pq 1 -Ps 1 -Pp 0 -Pn 1 -Pl 0 -Pe 0->0 -Pw 0 -Pm 0 -Pc 0 -Pb 0->0 
r -t 0.004818726 -Hs 1 -Hd -1 -Ni 1 -Nx 90.00 -Ny 90.00 -Nz 0.00 -Ne -1.000000 -Nl RTR -Nw --- -Ma 0 -Md ffffffff -Ms 2 -Mt 800 -Is 2.255 -Id 1.255 -It DSR -Il 32 -If 0 -Ii 1 -Iv 32 -P dsr -Ph 1 -Pq 1 -Ps 1 -Pp 0 -Pn 1 -Pl 0 -Pe 0->0 -Pw 0 -Pm 0 -Pc 0 -Pb 0->0 
r -t 0.004818734 -Hs 3 -Hd -1 -Ni 3 -Nx 41.91 -Ny 28.21 -Nz 0.00 -Ne -1.000000 -Nl RTR -Nw --- -Ma 0 -Md ffffffff -Ms 2 -Mt 800 -Is 2.255 -Id 1.255 -It DSR -Il 32 -If 0 -Ii 1 -Iv 32 -P dsr -Ph 1 -Pq 1 -Ps 1 -Pp 0 -Pn 1 -Pl 0 -Pe 0->0 -Pw 0 -Pm 0 -Pc 0 -Pb 0->0 
r -t 0.004818774 -Hs 8 -Hd -1 -Ni 8 -Nx 65.33 -Ny 99.48 -Nz 0.00 -Ne -1.000000 -Nl RTR -Nw --- -Ma 0 -Md ffffffff -Ms 2 -Mt 800 -Is 2.255 -Id 1.255 -It DSR -Il 32 -If 0 -Ii 1 -Iv 32 -P dsr -Ph 1 -Pq 1 -Ps 1 -Pp 0 -Pn 1 -Pl 0 -Pe 0->0 -Pw 0 -Pm 0 -Pc 0 -Pb 0->0 
r -t 0.004818820 -Hs 6 -Hd -1 -Ni 6 -Nx 14.02 -Ny 38.32 -Nz 0.00 -Ne -1.000000 -Nl RTR -Nw --- -Ma 0 -Md ffffffff -Ms 2 -Mt 800 -Is 2.255 -Id 1.255 -It DSR -Il 32 -If 0 -Ii 1 -Iv 32 -P dsr -Ph 1 -Pq 1 -Ps 1 -Pp 0 -Pn 1 -Pl 0 -Pe 0->0 -Pw 0 -Pm 0 -Pc 0 -Pb 0->0 
r -t 0.004818843 -Hs 7 -Hd -1 -Ni 7 -Nx 7.01 -Ny 46.69 -Nz 0.00 -Ne -1.000000 -Nl RTR -Nw --- -Ma 0 -Md ffffffff -Ms 2 -Mt 800 -Is 2.255 -Id 1.255 -It DSR -Il 32 -If 0 -Ii 1 -Iv 32 -P dsr -Ph 1 -Pq 1 -Ps 1 -Pp 0 -Pn 1 -Pl 0 -Pe 0->0 -Pw 0 -Pm 0 -Pc 0 -Pb 0->0 
r -t 0.004818899 -Hs 0 -Hd -1 -Ni 0 -Nx 0.00 -Ny 0.00 -Nz 0.00 -Ne -1.000000 -Nl RTR -Nw --- -Ma 0 -Md ffffffff -Ms 2 -Mt 800 -Is 2.255 -Id 1.255 -It DSR -Il 32 -If 0 -Ii 1 -Iv 32 -P dsr -Ph 1 -Pq 1 -Ps 1 -Pp 0 -Pn 1 -Pl 0 -Pe 0->0 -Pw 0 -Pm 0 -Pc 0 -Pb 0->0 
r -t 0.005988756 -Hs 2 -Hd -1 -Ni 2 -Nx 89.24 -Ny 42.69 -Nz 0.00 -Ne -1.000000 -Nl RTR -Nw --- -Ma 0 -Md ffffffff -Ms 9 -Mt 800 -Is 9.255 -Id 1.255 -It DSR -Il 32 -If 0 -Ii 15 -Iv 32 -P dsr -Ph 1 -Pq 1 -Ps 1 -Pp 0 -Pn 1 -Pl 0 -Pe 0->0 -Pw 0 -Pm 0 -Pc 0 -Pb 0->0 
r -t 0.005988791 -Hs 5 -Hd -1 -Ni 5 -Nx 98.56 -Ny 50.38 -Nz 0.00 -Ne -1.000000 -Nl RTR -Nw --- -Ma 0 -Md ffffffff -Ms 9 -Mt 800 -Is 9.255 -Id 1.255 -It DSR -Il 32 -If 0 -Ii 15 -Iv 32 -P dsr -Ph 1 -Pq 1 -Ps 1 -Pp 0 -Pn 1 -Pl 0 -Pe 0->0 -Pw 0 -Pm 0 -Pc 0 -Pb 0->0 
r -t 0.005988803 -Hs 3 -Hd -1 -Ni 3 -Nx 41.91 -Ny 28.21 -Nz 0.00 -Ne -1.000000 -Nl RTR -Nw --- -Ma 0 -Md ffffffff -Ms 9 -Mt 800 -Is 9.255 -Id 1.255 -It DSR -Il 32 -If 0 -Ii 15 -Iv 32 -P dsr -Ph 1 -Pq 1 -Ps 1 -Pp 0 -Pn 1 -Pl 0 -Pe 0->0 -Pw 0 -Pm 0 -Pc 0 -Pb 0->0 
r -t 0.005988871 -Hs 4 -Hd -1 -Ni 4 -Nx 59.54 -Ny 73.82 -Nz 0.00 -Ne -1.000000 -Nl RTR -Nw --- -Ma 0 -Md ffffffff -Ms 9 -Mt 800 -Is 9.255 -Id 1.255 -It DSR -Il 32 -If 0 -Ii 15 -Iv 32 -P dsr -Ph 1 -Pq 1 -Ps 1 -Pp 0 -Pn 1 -Pl 0 -Pe 0->0 -Pw 0 -Pm 0 -Pc 0 -Pb 0->0 
r -t 0.005988902 -Hs 6 -Hd -1 -Ni 6 -Nx 14.02 -Ny 38.32 -Nz 0.00 -Ne -1.000000 -Nl RTR -Nw --- -Ma 0 -Md ffffffff -Ms 9 -Mt 800 -Is 9.255 -Id 1.255 -It DSR -Il 32 -If 0 -Ii 15 -Iv 32 -P dsr -Ph 1 -Pq 1 -Ps 1 -Pp 0 -Pn 1 -Pl 0 -Pe 0->0 -Pw 0 -Pm 0 -Pc 0 -Pb 0->0 
r -t 0.005988912 -Hs 1 -Hd -1 -Ni 1 -Nx 90.00 -Ny 90.00 -Nz 0.00 -Ne -1.000000 -Nl RTR -Nw --- -Ma 0 -Md ffffffff -Ms 9 -Mt 800 -Is 9.255 -Id 1.255 -It DSR -Il 32 -If 0 -Ii 15 -Iv 32 -P dsr -Ph 1 -Pq 1 -Ps 1 -Pp 0 -Pn 1 -Pl 0 -Pe 0->0 -Pw 0 -Pm 0 -Pc 0 -Pb 0->0 
r -t 0.005988934 -Hs 7 -Hd -1 -Ni 7 -Nx 7.01 -Ny 46.69 -Nz 0.00 -Ne -1.000000 -Nl RTR -Nw --- -Ma 0 -Md ffffffff -Ms 9 -Mt 800 -Is 9.255 -Id 1.255 -It DSR -Il 32 -If 0 -Ii 15 -Iv 32 -P dsr -Ph 1 -Pq 1 -Ps 1 -Pp 0 -Pn 1 -Pl 0 -Pe 0->0 -Pw 0 -Pm 0 -Pc 0 -Pb 0->0 
r -t 0.005988941 -Hs 0 -Hd -1 -Ni 0 -Nx 0.00 -Ny 0.00 -Nz 0.00 -Ne -1.000000 -Nl RTR -Nw --- -Ma 0 -Md ffffffff -Ms 9 -Mt 800 -Is 9.255 -Id 1.255 -It DSR -Il 32 -If 0 -Ii 15 -Iv 32 -P dsr -Ph 1 -Pq 1 -Ps 1 -Pp 0 -Pn 1 -Pl 0 -Pe 0->0 -Pw 0 -Pm 0 -Pc 0 -Pb 0->0 
r -t 0.005988948 -Hs 8 -Hd -1 -Ni 8 -Nx 65.33 -Ny 99.48 -Nz 0.00 -Ne -1.000000 -Nl RTR -Nw --- -Ma 0 -Md ffffffff -Ms 9 -Mt 800 -Is 9.255 -Id 1.255 -It DSR -Il 32 -If 0 -Ii 15 -Iv 32 -P dsr -Ph 1 -Pq 1 -Ps 1 -Pp 0 -Pn 1 -Pl 0 -Pe 0->0 -Pw 0 -Pm 0 -Pc 0 -Pb 0->0 
s -t 0.006400677 -Hs 6 -Hd -1 -Ni 6 -Nx 14.02 -Ny 38.32 -Nz 0.00 -Ne -1.000000 -Nl RTR -Nw --- -Ma 0 -Md 0 -Ms 0 -Mt 0 -Is 6.255 -Id 1.255 -It DSR -Il 32 -If 0 -Ii 9 -Iv 32 -P dsr -Ph 1 -Pq 1 -Ps 1 -Pp 0 -Pn 1 -Pl 0 -Pe 0->0 -Pw 0 -Pm 0 -Pc 0 -Pb 0->0 
r -t 0.007777255 -Hs 7 -Hd -1 -Ni 7 -Nx 7.01 -Ny 46.69 -Nz 0.00 -Ne -1.000000 -Nl RTR -Nw --- -Ma 0 -Md ffffffff -Ms 6 -Mt 800 -Is 6.255 -Id 1.255 -It DSR -Il 32 -If 0 -Ii 9 -Iv 32 -P dsr -Ph 1 -Pq 1 -Ps 1 -Pp 0 -Pn 1 -Pl 0 -Pe 0->0 -Pw 0 -Pm 0 -Pc 0 -Pb 0->0 
r -t 0.007777317 -Hs 3 -Hd -1 -Ni 3 -Nx 41.91 -Ny 28.21 -Nz 0.00 -Ne -1.000000 -Nl RTR -Nw --- -Ma 0 -Md ffffffff -Ms 6 -Mt 800 -Is 6.255 -Id 1.255 -It DSR -Il 32 -If 0 -Ii 9 -Iv 32 -P dsr -Ph 1 -Pq 1 -Ps 1 -Pp 0 -Pn 1 -Pl 0 -Pe 0->0 -Pw 0 -Pm 0 -Pc 0 -Pb 0->0 
r -t 0.007777355 -Hs 0 -Hd -1 -Ni 0 -Nx 0.00 -Ny 0.00 -Nz 0.00 -Ne -1.000000 -Nl RTR -Nw --- -Ma 0 -Md ffffffff -Ms 6 -Mt 800 -Is 6.255 -Id 1.255 -It DSR -Il 32 -If 0 -Ii 9 -Iv 32 -P dsr -Ph 1 -Pq 1 -Ps 1 -Pp 0 -Pn 1 -Pl 0 -Pe 0->0 -Pw 0 -Pm 0 -Pc 0 -Pb 0->0 
r -t 0.007777411 -Hs 4 -Hd -1 -Ni 4 -Nx 59.54 -Ny 73.82 -Nz 0.00 -Ne -1.000000 -Nl RTR -Nw --- -Ma 0 -Md ffffffff -Ms 6 -Mt 800 -Is 6.255 -Id 1.255 -It DSR -Il 32 -If 0 -Ii 9 -Iv 32 -P dsr -Ph 1 -Pq 1 -Ps 1 -Pp 0 -Pn 1 -Pl 0 -Pe 0->0 -Pw 0 -Pm 0 -Pc 0 -Pb 0->0 
r -t 0.007777458 -Hs 9 -Hd -1 -Ni 9 -Nx 82.25 -Ny 15.48 -Nz 0.00 -Ne -1.000000 -Nl RTR -Nw --- -Ma 0 -Md ffffffff -Ms 6 -Mt 800 -Is 6.255 -Id 1.255 -It DSR -Il 32 -If 0 -Ii 9 -Iv 32 -P dsr -Ph 1 -Pq 1 -Ps 1 -Pp 0 -Pn 1 -Pl 0 -Pe 0->0 -Pw 0 -Pm 0 -Pc 0 -Pb 0->0 
r -t 0.007777470 -Hs 2 -Hd -1 -Ni 2 -Nx 89.24 -Ny 42.69 -Nz 0.00 -Ne -1.000000 -Nl RTR -Nw --- -Ma 0 -Md ffffffff -Ms 6 -Mt 800 -Is 6.255 -Id 1.255 -It DSR -Il 32 -If 0 -Ii 9 -Iv 32 -P dsr -Ph 1 -Pq 1 -Ps 1 -Pp 0 -Pn 1 -Pl 0 -Pe 0->0 -Pw 0 -Pm 0 -Pc 0 -Pb 0->0 
r -t 0.007777485 -Hs 8 -Hd -1 -Ni 8 -Nx 65.33 -Ny 99.48 -Nz 0.00 -Ne -1.000000 -Nl RTR -Nw --- -Ma 0 -Md ffffffff -Ms 6 -Mt 800 -Is 6.255 -Id 1.255 -It DSR -Il 32 -If 0 -Ii 9 -Iv 32 -P dsr -Ph 1 -Pq 1 -Ps 1 -Pp 0 -Pn 1 -Pl 0 -Pe 0->0 -Pw 0 -Pm 0 -Pc 0 -Pb 0->0 
r -t 0.007777503 -Hs 5 -Hd -1 -Ni 5 -Nx 98.56 -Ny 50.38 -Nz 0.00 -Ne -1.000000 -Nl RTR -Nw --- -Ma 0 -Md ffffffff -Ms 6 -Mt 800 -Is 6.255 -Id 1.255 -It DSR -Il 32 -If 0 -Ii 9 -Iv 32 -P dsr -Ph 1 -Pq 1 -Ps 1 -Pp 0 -Pn 1 -Pl 0 -Pe 0->0 -Pw 0 -Pm 0 -Pc 0 -Pb 0->0 
r -t 0.007777525 -Hs 1 -Hd -1 -Ni 1 -Nx 90.00 -Ny 90.00 -Nz 0.00 -Ne -1.000000 -Nl RTR -Nw --- -Ma 0 -Md ffffffff -Ms 6 -Mt 800 -Is 6.255 -Id 1.255 -It DSR -Il 32 -If 0 -Ii 9 -Iv 32 -P dsr -Ph 1 -Pq 1 -Ps 1 -Pp 0 -Pn 1 -Pl 0 -Pe 0->0 -Pw 0 -Pm 0 -Pc 0 -Pb 0->0 
s -t 0.008004700 -Hs 1 -Hd 4 -Ni 1 -Nx 90.00 -Ny 90.00 -Nz 0.00 -Ne -1.000000 -Nl RTR -Nw --- -Ma 0 -Md 0 -Ms 0 -Mt 0 -Is 1.255 -Id 4.255 -It DSR -Il 44 -If 0 -Ii 17 -Iv 254 -P dsr -Ph 2 -Pq 0 -Ps 1 -Pp 1 -Pn 1 -Pl 2 -Pe 4->1 -Pw 0 -Pm 0 -Pc 0 -Pb 0->0 
s -t 0.008363235 -Hs 3 -Hd -1 -Ni 3 -Nx 41.91 -Ny 28.21 -Nz 0.00 -Ne -1.000000 -Nl RTR -Nw --- -Ma 0 -Md 0 -Ms 0 -Mt 0 -Is 3.255 -Id 1.255 -It DSR -Il 32 -If 0 -Ii 3 -Iv 32 -P dsr -Ph 1 -Pq 1 -Ps 1 -Pp 0 -Pn 1 -Pl 0 -Pe 0->0 -Pw 0 -Pm 0 -Pc 0 -Pb 0->0 
s -t 0.008597277 -Hs 8 -Hd -1 -Ni 8 -Nx 65.33 -Ny 99.48 -Nz 0.00 -Ne -1.000000 -Nl RTR -Nw --- -Ma 0 -Md 0 -Ms 0 -Mt 0 -Is 8.255 -Id 1.255 -It DSR -Il 32 -If 0 -Ii 13 -Iv 32 -P dsr -Ph 1 -Pq 1 -Ps 1 -Pp 0 -Pn 1 -Pl 0 -Pe 0->0 -Pw 0 -Pm 0 -Pc 0 -Pb 0->0 
s -t 0.009651177 -Hs 1 -Hd 6 -Ni 1 -Nx 90.00 -Ny 90.00 -Nz 0.00 -Ne -1.000000 -Nl RTR -Nw --- -Ma 0 -Md 0 -Ms 0 -Mt 0 -Is 1.255 -Id 6.255 -It DSR -Il 44 -If 0 -Ii 21 -Iv 254 -P dsr -Ph 2 -Pq 0 -Ps 1 -Pp 1 -Pn 1 -Pl 2 -Pe 6->1 -Pw 0 -Pm 0 -Pc 0 -Pb 0->0 
r -t 0.010636084 -Hs 4 -Hd -1 -Ni 4 -Nx 59.54 -Ny 73.82 -Nz 0.00 -Ne -1.000000 -Nl RTR -Nw --- -Ma 0 -Md ffffffff -Ms 8 -Mt 800 -Is 8.255 -Id 1.255 -It DSR -Il 32 -If 0 -Ii 13 -Iv 32 -P dsr -Ph 1 -Pq 1 -Ps 1 -Pp 0 -Pn 1 -Pl 0 -Pe 0->0 -Pw 0 -Pm 0 -Pc 0 -Pb 0->0 
r -t 0.010636085 -Hs 1 -Hd -1 -Ni 1 -Nx 90.00 -Ny 90.00 -Nz 0.00 -Ne -1.000000 -Nl RTR -Nw --- -Ma 0 -Md ffffffff -Ms 8 -Mt 800 -Is 8.255 -Id 1.255 -It DSR -Il 32 -If 0 -Ii 13 -Iv 32 -P dsr -Ph 1 -Pq 1 -Ps 1 -Pp 0 -Pn 1 -Pl 0 -Pe 0->0 -Pw 0 -Pm 0 -Pc 0 -Pb 0->0 
r -t 0.010636194 -Hs 5 -Hd -1 -Ni 5 -Nx 98.56 -Ny 50.38 -Nz 0.00 -Ne -1.000000 -Nl RTR -Nw --- -Ma 0 -Md ffffffff -Ms 8 -Mt 800 -Is 8.255 -Id 1.255 -It DSR -Il 32 -If 0 -Ii 13 -Iv 32 -P dsr -Ph 1 -Pq 1 -Ps 1 -Pp 0 -Pn 1 -Pl 0 -Pe 0->0 -Pw 0 -Pm 0 -Pc 0 -Pb 0->0 
r -t 0.010636202 -Hs 2 -Hd -1 -Ni 2 -Nx 89.24 -Ny 42.69 -Nz 0.00 -Ne -1.000000 -Nl RTR -Nw --- -Ma 0 -Md ffffffff -Ms 8 -Mt 800 -Is 8.255 -Id 1.255 -It DSR -Il 32 -If 0 -Ii 13 -Iv 32 -P dsr -Ph 1 -Pq 1 -Ps 1 -Pp 0 -Pn 1 -Pl 0 -Pe 0->0 -Pw 0 -Pm 0 -Pc 0 -Pb 0->0 
r -t 0.010636247 -Hs 3 -Hd -1 -Ni 3 -Nx 41.91 -Ny 28.21 -Nz 0.00 -Ne -1.000000 -Nl RTR -Nw --- -Ma 0 -Md ffffffff -Ms 8 -Mt 800 -Is 8.255 -Id 1.255 -It DSR -Il 32 -If 0 -Ii 13 -Iv 32 -P dsr -Ph 1 -Pq 1 -Ps 1 -Pp 0 -Pn 1 -Pl 0 -Pe 0->0 -Pw 0 -Pm 0 -Pc 0 -Pb 0->0 
r -t 0.010636259 -Hs 7 -Hd -1 -Ni 7 -Nx 7.01 -Ny 46.69 -Nz 0.00 -Ne -1.000000 -Nl RTR -Nw --- -Ma 0 -Md ffffffff -Ms 8 -Mt 800 -Is 8.255 -Id 1.255 -It DSR -Il 32 -If 0 -Ii 13 -Iv 32 -P dsr -Ph 1 -Pq 1 -Ps 1 -Pp 0 -Pn 1 -Pl 0 -Pe 0->0 -Pw 0 -Pm 0 -Pc 0 -Pb 0->0 
r -t 0.010636263 -Hs 6 -Hd -1 -Ni 6 -Nx 14.02 -Ny 38.32 -Nz 0.00 -Ne -1.000000 -Nl RTR -Nw --- -Ma 0 -Md ffffffff -Ms 8 -Mt 800 -Is 8.255 -Id 1.255 -It DSR -Il 32 -If 0 -Ii 13 -Iv 32 -P dsr -Ph 1 -Pq 1 -Ps 1 -Pp 0 -Pn 1 -Pl 0 -Pe 0->0 -Pw 0 -Pm 0 -Pc 0 -Pb 0->0 
r -t 0.010636282 -Hs 9 -Hd -1 -Ni 9 -Nx 82.25 -Ny 15.48 -Nz 0.00 -Ne -1.000000 -Nl RTR -Nw --- -Ma 0 -Md ffffffff -Ms 8 -Mt 800 -Is 8.255 -Id 1.255 -It DSR -Il 32 -If 0 -Ii 13 -Iv 32 -P dsr -Ph 1 -Pq 1 -Ps 1 -Pp 0 -Pn 1 -Pl 0 -Pe 0->0 -Pw 0 -Pm 0 -Pc 0 -Pb 0->0 
r -t 0.010636393 -Hs 0 -Hd -1 -Ni 0 -Nx 0.00 -Ny 0.00 -Nz 0.00 -Ne -1.000000 -Nl RTR -Nw --- -Ma 0 -Md ffffffff -Ms 8 -Mt 800 -Is 8.255 -Id 1.255 -It DSR -Il 32 -If 0 -Ii 13 -Iv 32 -P dsr -Ph 1 -Pq 1 -Ps 1 -Pp 0 -Pn 1 -Pl 0 -Pe 0->0 -Pw 0 -Pm 0 -Pc 0 -Pb 0->0 
s -t 0.010744168 -Hs 1 -Hd 8 -Ni 1 -Nx 90.00 -Ny 90.00 -Nz 0.00 -Ne -1.000000 -Nl RTR -Nw --- -Ma 0 -Md 0 -Ms 0 -Mt 0 -Is 1.255 -Id 8.255 -It DSR -Il 44 -If 0 -Ii 22 -Iv 254 -P dsr -Ph 2 -Pq 0 -Ps 1 -Pp 1 -Pn 1 -Pl 2 -Pe 8->1 -Pw 0 -Pm 0 -Pc 0 -Pb 0->0 
r -t 0.011426345 -Hs 6 -Hd -1 -Ni 6 -Nx 14.02 -Ny 38.32 -Nz 0.00 -Ne -1.000000 -Nl RTR -Nw --- -Ma 0 -Md ffffffff -Ms 3 -Mt 800 -Is 3.255 -Id 1.255 -It DSR -Il 32 -If 0 -Ii 3 -Iv 32 -P dsr -Ph 1 -Pq 1 -Ps 1 -Pp 0 -Pn 1 -Pl 0 -Pe 0->0 -Pw 0 -Pm 0 -Pc 0 -Pb 0->0 
r -t 0.011426378 -Hs 7 -Hd -1 -Ni 7 -Nx 7.01 -Ny 46.69 -Nz 0.00 -Ne -1.000000 -Nl RTR -Nw --- -Ma 0 -Md ffffffff -Ms 3 -Mt 800 -Is 3.255 -Id 1.255 -It DSR -Il 32 -If 0 -Ii 3 -Iv 32 -P dsr -Ph 1 -Pq 1 -Ps 1 -Pp 0 -Pn 1 -Pl 0 -Pe 0->0 -Pw 0 -Pm 0 -Pc 0 -Pb 0->0 
r -t 0.011426388 -Hs 9 -Hd -1 -Ni 9 -Nx 82.25 -Ny 15.48 -Nz 0.00 -Ne -1.000000 -Nl RTR -Nw --- -Ma 0 -Md ffffffff -Ms 3 -Mt 800 -Is 3.255 -Id 1.255 -It DSR -Il 32 -If 0 -Ii 3 -Iv 32 -P dsr -Ph 1 -Pq 1 -Ps 1 -Pp 0 -Pn 1 -Pl 0 -Pe 0->0 -Pw 0 -Pm 0 -Pc 0 -Pb 0->0 
r -t 0.011426410 -Hs 4 -Hd -1 -Ni 4 -Nx 59.54 -Ny 73.82 -Nz 0.00 -Ne -1.000000 -Nl RTR -Nw --- -Ma 0 -Md ffffffff -Ms 3 -Mt 800 -Is 3.255 -Id 1.255 -It DSR -Il 32 -If 0 -Ii 3 -Iv 32 -P dsr -Ph 1 -Pq 1 -Ps 1 -Pp 0 -Pn 1 -Pl 0 -Pe 0->0 -Pw 0 -Pm 0 -Pc 0 -Pb 0->0 
r -t 0.011426412 -Hs 2 -Hd -1 -Ni 2 -Nx 89.24 -Ny 42.69 -Nz 0.00 -Ne -1.000000 -Nl RTR -Nw --- -Ma 0 -Md ffffffff -Ms 3 -Mt 800 -Is 3.255 -Id 1.255 -It DSR -Il 32 -If 0 -Ii 3 -Iv 32 -P dsr -Ph 1 -Pq 1 -Ps 1 -Pp 0 -Pn 1 -Pl 0 -Pe 0->0 -Pw 0 -Pm 0 -Pc 0 -Pb 0->0 
r -t 0.011426415 -Hs 0 -Hd -1 -Ni 0 -Nx 0.00 -Ny 0.00 -Nz 0.00 -Ne -1.000000 -Nl RTR -Nw --- -Ma 0 -Md ffffffff -Ms 3 -Mt 800 -Is 3.255 -Id 1.255 -It DSR -Il 32 -If 0 -Ii 3 -Iv 32 -P dsr -Ph 1 -Pq 1 -Ps 1 -Pp 0 -Pn 1 -Pl 0 -Pe 0->0 -Pw 0 -Pm 0 -Pc 0 -Pb 0->0 
r -t 0.011426449 -Hs 5 -Hd -1 -Ni 5 -Nx 98.56 -Ny 50.38 -Nz 0.00 -Ne -1.000000 -Nl RTR -Nw --- -Ma 0 -Md ffffffff -Ms 3 -Mt 800 -Is 3.255 -Id 1.255 -It DSR -Il 32 -If 0 -Ii 3 -Iv 32 -P dsr -Ph 1 -Pq 1 -Ps 1 -Pp 0 -Pn 1 -Pl 0 -Pe 0->0 -Pw 0 -Pm 0 -Pc 0 -Pb 0->0 
r -t 0.011426497 -Hs 8 -Hd -1 -Ni 8 -Nx 65.33 -Ny 99.48 -Nz 0.00 -Ne -1.000000 -Nl RTR -Nw --- -Ma 0 -Md ffffffff -Ms 3 -Mt 800 -Is 3.255 -Id 1.255 -It DSR -Il 32 -If 0 -Ii 3 -Iv 32 -P dsr -Ph 1 -Pq 1 -Ps 1 -Pp 0 -Pn 1 -Pl 0 -Pe 0->0 -Pw 0 -Pm 0 -Pc 0 -Pb 0->0 
r -t 0.011426508 -Hs 1 -Hd -1 -Ni 1 -Nx 90.00 -Ny 90.00 -Nz 0.00 -Ne -1.000000 -Nl RTR -Nw --- -Ma 0 -Md ffffffff -Ms 3 -Mt 800 -Is 3.255 -Id 1.255 -It DSR -Il 32 -If 0 -Ii 3 -Iv 32 -P dsr -Ph 1 -Pq 1 -Ps 1 -Pp 0 -Pn 1 -Pl 0 -Pe 0->0 -Pw 0 -Pm 0 -Pc 0 -Pb 0->0 
s -t 0.012229279 -Hs 1 -Hd 7 -Ni 1 -Nx 90.00 -Ny 90.00 -Nz 0.00 -Ne -1.000000 -Nl RTR -Nw --- -Ma 0 -Md 0 -Ms 0 -Mt 0 -Is 1.255 -Id 7.255 -It DSR -Il 44 -If 0 -Ii 18 -Iv 254 -P dsr -Ph 2 -Pq 0 -Ps 1 -Pp 1 -Pn 1 -Pl 2 -Pe 7->1 -Pw 0 -Pm 0 -Pc 0 -Pb 0->0 
s -t 0.013329792 -Hs 1 -Hd 2 -Ni 1 -Nx 90.00 -Ny 90.00 -Nz 0.00 -Ne -1.000000 -Nl RTR -Nw --- -Ma 0 -Md 0 -Ms 0 -Mt 0 -Is 1.255 -Id 2.255 -It DSR -Il 44 -If 0 -Ii 19 -Iv 254 -P dsr -Ph 2 -Pq 0 -Ps 1 -Pp 1 -Pn 1 -Pl 2 -Pe 2->1 -Pw 0 -Pm 0 -Pc 0 -Pb 0->0 
s -t 0.013611231 -Hs 1 -Hd 9 -Ni 1 -Nx 90.00 -Ny 90.00 -Nz 0.00 -Ne -1.000000 -Nl RTR -Nw --- -Ma 0 -Md 0 -Ms 0 -Mt 0 -Is 1.255 -Id 9.255 -It DSR -Il 44 -If 0 -Ii 20 -Iv 254 -P dsr -Ph 2 -Pq 0 -Ps 1 -Pp 1 -Pn 1 -Pl 2 -Pe 9->1 -Pw 0 -Pm 0 -Pc 0 -Pb 0->0 
s -t 0.014783135 -Hs 1 -Hd 3 -Ni 1 -Nx 90.00 -Ny 90.00 -Nz 0.00 -Ne -1.000000 -Nl RTR -Nw --- -Ma 0 -Md 0 -Ms 0 -Mt 0 -Is 1.255 -Id 3.255 -It DSR -Il 44 -If 0 -Ii 23 -Iv 254 -P dsr -Ph 2 -Pq 0 -Ps 1 -Pp 1 -Pn 1 -Pl 2 -Pe 3->1 -Pw 0 -Pm 0 -Pc 0 -Pb 0->0 
r -t 0.016020373 -Hs 5 -Hd 5 -Ni 5 -Nx 98.56 -Ny 50.38 -Nz 0.00 -Ne -1.000000 -Nl RTR -Nw --- -Ma 13a -Md 5 -Ms 1 -Mt 800 -Is 1.255 -Id 5.255 -It DSR -Il 44 -If 0 -Ii 16 -Iv 254 -P dsr -Ph 2 -Pq 0 -Ps 1 -Pp 1 -Pn 1 -Pl 2 -Pe 5->1 -Pw 0 -Pm 0 -Pc 0 -Pb 0->0 
SFESTs 0.016020373 _5_ 6 [5 -> 1] 1(1) to 1 [5 |1 ]
s -t 0.016020373 -Hs 5 -Hd 1 -Ni 5 -Nx 98.56 -Ny 50.38 -Nz 0.00 -Ne -1.000000 -Nl RTR -Nw --- -Ma 0 -Md 0 -Ms 0 -Mt 0 -Is 5.0 -Id 1.0 -It cbr -Il 548 -If 2 -Ii 6 -Iv 32 -Pn cbr -Pi 0 -Pf 0 -Po 0 
r -t 0.017876853 -Hs 4 -Hd 4 -Ni 4 -Nx 59.54 -Ny 73.82 -Nz 0.00 -Ne -1.000000 -Nl RTR -Nw --- -Ma 13a -Md 4 -Ms 1 -Mt 800 -Is 1.255 -Id 4.255 -It DSR -Il 44 -If 0 -Ii 17 -Iv 254 -P dsr -Ph 2 -Pq 0 -Ps 1 -Pp 1 -Pn 1 -Pl 2 -Pe 4->1 -Pw 0 -Pm 0 -Pc 0 -Pb 0->0 
SFESTs 0.017876853 _4_ 4 [4 -> 1] 1(1) to 1 [4 |1 ]
s -t 0.017876853 -Hs 4 -Hd 1 -Ni 4 -Nx 59.54 -Ny 73.82 -Nz 0.00 -Ne -1.000000 -Nl RTR -Nw --- -Ma 0 -Md 0 -Ms 0 -Mt 0 -Is 4.0 -Id 1.0 -It cbr -Il 548 -If 2 -Ii 4 -Iv 32 -Pn cbr -Pi 0 -Pf 0 -Po 0 
r -t 0.023945198 -Hs 1 -Hd 1 -Ni 1 -Nx 90.00 -Ny 90.00 -Nz 0.00 -Ne -1.000000 -Nl RTR -Nw --- -Ma 13a -Md 1 -Ms 4 -Mt 800 -Is 4.0 -Id 1.0 -It cbr -Il 548 -If 2 -Ii 4 -Iv 32 -Pn cbr -Pi 0 -Pf 1 -Po 0 
r -t 0.023945198 -Hs 1 -Hd 1 -Ni 1 -Nx 90.00 -Ny 90.00 -Nz 0.00 -Ne -1.000000 -Nl AGT -Nw --- -Ma 13a -Md 1 -Ms 4 -Mt 800 -Is 4.0 -Id 1.0 -It cbr -Il 512 -If 2 -Ii 4 -Iv 32 -Pn cbr -Pi 0 -Pf 1 -Po 0 
SFESTs 0.030426140 _2_ 0 [2 -> 1] 1(1) to 1 [2 |1 ]
s -t 0.030426140 -Hs 2 -Hd 1 -Ni 2 -Nx 89.24 -Ny 42.69 -Nz 0.00 -Ne -1.000000 -Nl RTR -Nw --- -Ma 0 -Md 0 -Ms 0 -Mt 0 -Is 2.0 -Id 1.0 -It cbr -Il 548 -If 2 -Ii 0 -Iv 32 -Pn cbr -Pi 0 -Pf 0 -Po 0 
SFESTs 0.032643680 _3_ 2 [3 -> 1] 1(1) to 1 [3 |1 ]
s -t 0.032643680 -Hs 3 -Hd 1 -Ni 3 -Nx 41.91 -Ny 28.21 -Nz 0.00 -Ne -1.000000 -Nl RTR -Nw --- -Ma 0 -Md 0 -Ms 0 -Mt 0 -Is 3.0 -Id 1.0 -It cbr -Il 548 -If 2 -Ii 2 -Iv 32 -Pn cbr -Pi 0 -Pf 0 -Po 0 
r -t 0.033385738 -Hs 1 -Hd 1 -Ni 1 -Nx 90.00 -Ny 90.00 -Nz 0.00 -Ne -1.000000 -Nl RTR -Nw --- -Ma 13a -Md 1 -Ms 5 -Mt 800 -Is 5.0 -Id 1.0 -It cbr -Il 548 -If 2 -Ii 6 -Iv 32 -Pn cbr -Pi 0 -Pf 1 -Po 0 
r -t 0.033385738 -Hs 1 -Hd 1 -Ni 1 -Nx 90.00 -Ny 90.00 -Nz 0.00 -Ne -1.000000 -Nl AGT -Nw --- -Ma 13a -Md 1 -Ms 5 -Mt 800 -Is 5.0 -Id 1.0 -It cbr -Il 512 -If 2 -Ii 6 -Iv 32 -Pn cbr -Pi 0 -Pf 1 -Po 0 
SFESTs 0.037038053 _8_ 12 [8 -> 1] 1(1) to 1 [8 |1 ]
s -t 0.037038053 -Hs 8 -Hd 1 -Ni 8 -Nx 65.33 -Ny 99.48 -Nz 0.00 -Ne -1.000000 -Nl RTR -Nw --- -Ma 0 -Md 0 -Ms 0 -Mt 0 -Is 8.0 -Id 1.0 -It cbr -Il 548 -If 2 -Ii 12 -Iv 32 -Pn cbr -Pi 0 -Pf 0 -Po 0 
SFESTs 0.039388853 _6_ 8 [6 -> 1] 1(1) to 1 [6 |1 ]
s -t 0.039388853 -Hs 6 -Hd 1 -Ni 6 -Nx 14.02 -Ny 38.32 -Nz 0.00 -Ne -1.000000 -Nl RTR -Nw --- -Ma 0 -Md 0 -Ms 0 -Mt 0 -Is 6.0 -Id 1.0 -It cbr -Il 548 -If 2 -Ii 8 -Iv 32 -Pn cbr -Pi 0 -Pf 0 -Po 0 
s -t 0.040960000 -Hs 2 -Hd -2 -Ni 2 -Nx 89.24 -Ny 42.69 -Nz 0.00 -Ne -1.000000 -Nl AGT -Nw --- -Ma 0 -Md 0 -Ms 0 -Mt 0 -Is 2.0 -Id 1.0 -It cbr -Il 512 -If 2 -Ii 24 -Iv 32 -Pn cbr -Pi 1 -Pf 0 -Po 0 