V -t * -v 1.0a5 -a 0
W -t * -x 100 -y 100
A -t * -n 1 -p 0 -o 0x7fffffff -c 30 -a 1
A -t * -h 1 -m 1073741823 -s 0
n -t 0.000000 -s 2 -x 89.239168 -y 42.693039 -U 0.000000 -V 0.000000 -T 0.000000
n -t 0.000000 -s 3 -x 41.912787 -y 28.212027 -U 0.000000 -V 0.000000 -T 0.000000
n -t 0.000000 -s 4 -x 59.539110 -y 73.820346 -U 0.000000 -V 0.000000 -T 0.000000
n -t 0.000000 -s 5 -x 98.557172 -y 50.384603 -U 0.000000 -V 0.000000 -T 0.000000
n -t 0.000000 -s 6 -x 14.020249 -y 38.323735 -U 0.000000 -V 0.000000 -T 0.000000
n -t 0.000000 -s 7 -x 7.011762 -y 46.686817 -U 0.000000 -V 0.000000 -T 0.000000
n -t 0.000000 -s 8 -x 65.329891 -y 99.481302 -U 0.000000 -V 0.000000 -T 0.000000
n -t 0.000000 -s 9 -x 82.246414 -y 15.476268 -U 0.000000 -V 0.000000 -T 0.000000
n -t 0.000000 -s 0 -x 0.000000 -y 0.000000 -U 0.000000 -V 0.000000 -T 0.000000
n -t 0.000000 -s 1 -x 90.000000 -y 90.000000 -U -0.000000 -V -0.000000 -T 0.000000
+ -t 0.000000000 -s 2 -d -1 -p cbr -e 512 -c 2 -a 0 -i 0 -k AGT 
- -t 0.000000000 -s 2 -d -1 -p cbr -e 512 -c 2 -a 0 -i 0 -k AGT
h -t 0.000000000 -s 2 -d -1 -p cbr -e 512 -c 2 -a 0 -i 0 -k AGT
+ -t 0.000000000 -s 3 -d -1 -p cbr -e 512 -c 2 -a 0 -i 2 -k AGT 
- -t 0.000000000 -s 3 -d -1 -p cbr -e 512 -c 2 -a 0 -i 2 -k AGT
h -t 0.000000000 -s 3 -d -1 -p cbr -e 512 -c 2 -a 0 -i 2 -k AGT
+ -t 0.000000000 -s 4 -d -1 -p cbr -e 512 -c 2 -a 0 -i 4 -k AGT 
- -t 0.000000000 -s 4 -d -1 -p cbr -e 512 -c 2 -a 0 -i 4 -k AGT
h -t 0.000000000 -s 4 -d -1 -p cbr -e 512 -c 2 -a 0 -i 4 -k AGT
+ -t 0.000000000 -s 5 -d -1 -p cbr -e 512 -c 2 -a 0 -i 6 -k AGT 
- -t 0.000000000 -s 5 -d -1 -p cbr -e 512 -c 2 -a 0 -i 6 -k AGT
h -t 0.000000000 -s 5 -d -1 -p cbr -e 512 -c 2 -a 0 -i 6 -k AGT
+ -t 0.000000000 -s 6 -d -1 -p cbr -e 512 -c 2 -a 0 -i 8 -k AGT 
- -t 0.000000000 -s 6 -d -1 -p cbr -e 512 -c 2 -a 0 -i 8 -k AGT
h -t 0.000000000 -s 6 -d -1 -p cbr -e 512 -c 2 -a 0 -i 8 -k AGT
+ -t 0.000000000 -s 7 -d -1 -p cbr -e 512 -c 2 -a 0 -i 10 -k AGT 
- -t 0.000000000 -s 7 -d -1 -p cbr -e 512 -c 2 -a 0 -i 10 -k AGT
h -t 0.000000000 -s 7 -d -1 -p cbr -e 512 -c 2 -a 0 -i 10 -k AGT
+ -t 0.000000000 -s 8 -d -1 -p cbr -e 512 -c 2 -a 0 -i 12 -k AGT 
- -t 0.000000000 -s 8 -d -1 -p cbr -e 512 -c 2 -a 0 -i 12 -k AGT
h -t 0.000000000 -s 8 -d -1 -p cbr -e 512 -c 2 -a 0 -i 12 -k AGT
+ -t 0.000000000 -s 9 -d -1 -p cbr -e 512 -c 2 -a 0 -i 14 -k AGT 
- -t 0.000000000 -s 9 -d -1 -p cbr -e 512 -c 2 -a 0 -i 14 -k AGT
h -t 0.000000000 -s 9 -d -1 -p cbr -e 512 -c 2 -a 0 -i 14 -k AGT
+ -t 0.000427946 -s 5 -d -1 -p DSR -e 32 -c 2 -a 0 -i 7 -k RTR 
- -t 0.000427946 -s 5 -d -1 -p DSR -e 32 -c 2 -a 0 -i 7 -k RTR
h -t 0.000427946 -s 5 -d -1 -p DSR -e 32 -c 2 -a 0 -i 7 -k RTR
+ -t 0.001138082 -s 7 -d -1 -p DSR -e 32 -c 2 -a 0 -i 11 -k RTR 
- -t 0.001138082 -s 7 -d -1 -p DSR -e 32 -c 2 -a 0 -i 11 -k RTR
h -t 0.001138082 -s 7 -d -1 -p DSR -e 32 -c 2 -a 0 -i 11 -k RTR
+ -t 0.001641454 -s 4 -d -1 -p DSR -e 32 -c 2 -a 0 -i 5 -k RTR 
- -t 0.001641454 -s 4 -d -1 -p DSR -e 32 -c 2 -a 0 -i 5 -k RTR
h -t 0.001641454 -s 4 -d -1 -p DSR -e 32 -c 2 -a 0 -i 5 -k RTR
+ -t 0.003090791 -s 2 -d -1 -p DSR -e 32 -c 2 -a 0 -i 1 -k RTR 
- -t 0.003090791 -s 2 -d -1 -p DSR -e 32 -c 2 -a 0 -i 1 -k RTR
h -t 0.003090791 -s 2 -d -1 -p DSR -e 32 -c 2 -a 0 -i 1 -k RTR
+ -t 0.004236567 -s 9 -d -1 -p DSR -e 32 -c 2 -a 0 -i 15 -k RTR 
- -t 0.004236567 -s 9 -d -1 -p DSR -e 32 -c 2 -a 0 -i 15 -k RTR
h -t 0.004236567 -s 9 -d -1 -p DSR -e 32 -c 2 -a 0 -i 15 -k RTR
+ -t 0.004308960 -s 1 -d 5 -p DSR -e 44 -c 2 -a 0 -i 16 -k RTR 
- -t 0.004308960 -s 1 -d 5 -p DSR -e 44 -c 2 -a 0 -i 16 -k RTR
h -t 0.004308960 -s 1 -d 5 -p DSR -e 44 -c 2 -a 0 -i 16 -k RTR
+ -t 0.006400677 -s 6 -d -1 -p DSR -e 32 -c 2 -a 0 -i 9 -k RTR 
- -t 0.006400677 -s 6 -d -1 -p DSR -e 32 -c 2 -a 0 -i 9 -k RTR
h -t 0.006400677 -s 6 -d -1 -p DSR -e 32 -c 2 -a 0 -i 9 -k RTR
+ -t 0.008004700 -s 1 -d 4 -p DSR -e 44 -c 2 -a 0 -i 17 -k RTR 
- -t 0.008004700 -s 1 -d 4 -p DSR -e 44 -c 2 -a 0 -i 17 -k RTR
h -t 0.008004700 -s 1 -d 4 -p DSR -e 44 -c 2 -a 0 -i 17 -k RTR
+ -t 0.008363235 -s 3 -d -1 -p DSR -e 32 -c 2 -a 0 -i 3 -k RTR 
- -t 0.008363235 -s 3 -d -1 -p DSR -e 32 -c 2 -a 0 -i 3 -k RTR
h -t 0.008363235 -s 3 -d -1 -p DSR -e 32 -c 2 -a 0 -i 3 -k RTR
+ -t 0.008597277 -s 8 -d -1 -p DSR -e 32 -c 2 -a 0 -i 13 -k RTR 
- -t 0.008597277 -s 8 -d -1 -p DSR -e 32 -c 2 -a 0 -i 13 -k RTR
h -t 0.008597277 -s 8 -d -1 -p DSR -e 32 -c 2 -a 0 -i 13 -k RTR
+ -t 0.009651177 -s 1 -d 6 -p DSR -e 44 -c 2 -a 0 -i 21 -k RTR 
- -t 0.009651177 -s 1 -d 6 -p DSR -e 44 -c 2 -a 0 -i 21 -k RTR
h -t 0.009651177 -s 1 -d 6 -p DSR -e 44 -c 2 -a 0 -i 21 -k RTR
+ -t 0.010744168 -s 1 -d 8 -p DSR -e 44 -c 2 -a 0 -i 22 -k RTR 
- -t 0.010744168 -s 1 -d 8 -p DSR -e 44 -c 2 -a 0 -i 22 -k RTR
h -t 0.010744168 -s 1 -d 8 -p DSR -e 44 -c 2 -a 0 -i 22 -k RTR
+ -t 0.012229279 -s 1 -d 7 -p DSR -e 44 -c 2 -a 0 -i 18 -k RTR 
- -t 0.012229279 -s 1 -d 7 -p DSR -e 44 -c 2 -a 0 -i 18 -k RTR
h -t 0.012229279 -s 1 -d 7 -p DSR -e 44 -c 2 -a 0 -i 18 -k RTR
+ -t 0.013329792 -s 1 -d 2 -p DSR -e 44 -c 2 -a 0 -i 19 -k RTR 
- -t 0.013329792 -s 1 -d 2 -p DSR -e 44 -c 2 -a 0 -i 19 -k RTR
h -t 0.013329792 -s 1 -d 2 -p DSR -e 44 -c 2 -a 0 -i 19 -k RTR
+ -t 0.013611231 -s 1 -d 9 -p DSR -e 44 -c 2 -a 0 -i 20 -k RTR 
- -t 0.013611231 -s 1 -d 9 -p DSR -e 44 -c 2 -a 0 -i 20 -k RTR
h -t 0.013611231 -s 1 -d 9 -p DSR -e 44 -c 2 -a 0 -i 20 -k RTR
+ -t 0.014783135 -s 1 -d 3 -p DSR -e 44 -c 2 -a 0 -i 23 -k RTR 
- -t 0.014783135 -s 1 -d 3 -p DSR -e 44 -c 2 -a 0 -i 23 -k RTR
h -t 0.014783135 -s 1 -d 3 -p DSR -e 44 -c 2 -a 0 -i 23 -k RTR
+ -t 0.016020373 -s 5 -d 1 -p cbr -e 548 -c 2 -a 0 -i 6 -k RTR 
- -t 0.016020373 -s 5 -d 1 -p cbr -e 548 -c 2 -a 0 -i 6 -k RTR
h -t 0.016020373 -s 5 -d 1 -p cbr -e 548 -c 2 -a 0 -i 6 -k RTR
+ -t 0.017876853 -s 4 -d 1 -p cbr -e 548 -c 2 -a 0 -i 4 -k RTR 
- -t 0.017876853 -s 4 -d 1 -p cbr -e 548 -c 2 -a 0 -i 4 -k RTR
h -t 0.017876853 -s 4 -d 1 -p cbr -e 548 -c 2 -a 0 -i 4 -k RTR
r -t 0.023945198 -s 1 -d 1 -p cbr -e 512 -c 2 -a 0 -i 4 -k AGT
+ -t 0.030426140 -s 2 -d 1 -p cbr -e 548 -c 2 -a 0 -i 0 -k RTR 
- -t 0.030426140 -s 2 -d 1 -p cbr -e 548 -c 2 -a 0 -i 0 -k RTR
h -t 0.030426140 -s 2 -d 1 -p cbr -e 548 -c 2 -a 0 -i 0 -k RTR
+ -t 0.032643680 -s 3 -d 1 -p cbr -e 548 -c 2 -a 0 -i 2 -k RTR 
- -t 0.032643680 -s 3 -d 1 -p cbr -e 548 -c 2 -a 0 -i 2 -k RTR
h -t 0.032643680 -s 3 -d 1 -p cbr -e 548 -c 2 -a 0 -i 2 -k RTR
r -t 0.033385738 -s 1 -d 1 -p cbr -e 512 -c 2 -a 0 -i 6 -k AGT
+ -t 0.037038053 -s 8 -d 1 -p cbr -e 548 -c 2 -a 0 -i 12 -k RTR 
- -t 0.037038053 -s 8 -d 1 -p cbr -e 548 -c 2 -a 0 -i 12 -k RTR
h -t 0.037038053 -s 8 -d 1 -p cbr -e 548 -c 2 -a 0 -i 12 -k RTR
+ -t 0.039388853 -s 6 -d 1 -p cbr -e 548 -c 2 -a 0 -i 8 -k RTR 
- -t 0.039388853 -s 6 -d 1 -p cbr -e 548 -c 2 -a 0 -i 8 -k RTR
h -t 0.039388853 -s 6 -d 1 -p cbr -e 548 -c 2 -a 0 -i 8 -k RTR
+ -t 0.040960000 -s 2 -d -1 -p cbr -e 512 -c 2 -a 0 -i 24 -k AGT 
- -t 0.040960000 -s 2 -d -1 -p cbr -e 512 -c 2 -a 0 -i 24 -k AGT
h -t 0.040960000 -s 2 -d -1 -p cbr -e 512 -c 2 -a 0 -i 24 -k AGT
+ -t 0.040960000 -s 3 -d -1 -p cbr -e 512 -c 2 -a 0 -i 25 -k AGT 
- -t 0.040960000 -s 3 -d -1 -p cbr -e 512 -c 2 -a 0 -i 25 -k AGT
h -t 0.040960000 -s 3 -d -1 -p cbr -e 512 -c 2 -a 0 -i 25 -k AGT
+ -t 0.040960000 -s 4 -d -1 -p cbr -e 512 -c 2 -a 0 -i 26 -k AGT 
- -t 0.040960000 -s 4 -d -1 -p cbr -e 512 -c 2 -a 0 -i 26 -k AGT
h -t 0.040960000 -s 4 -d -1 -p cbr -e 512 -c 2 -a 0 -i 26 -k AGT
+ -t 0.040960000 -s 5 -d -1 -p cbr -e 512 -c 2 -a 0 -i 27 -k AGT 
- -t 0.040960000 -s 5 -d -1 -p cbr -e 512 -c 2 -a 0 -i 27 -k AGT
h -t 0.040960000 -s 5 -d -1 -p cbr -e 512 -c 2 -a 0 -i 27 -k AGT
+ -t 0.040960000 -s 6 -d -1 -p cbr -e 512 -c 2 -a 0 -i 28 -k AGT 
- -t 0.040960000 -s 6 -d -1 -p cbr -e 512 -c 2 -a 0 -i 28 -k AGT
h -t 0.040960000 -s 6 -d -1 -p cbr -e 512 -c 2 -a 0 -i 28 -k AGT
+ -t 0.040960000 -s 7 -d -1 -p cbr -e 512 -c 2 -a 0 -i 29 -k AGT 
- -t 0.040960000 -s 7 -d -1 -p cbr -e 512 -c 2 -a 0 -i 29 -k AGT
h -t 0.040960000 -s 7 -d -1 -p cbr -e 512 -c 2 -a 0 -i 29 -k AGT
+ -t 0.040960000 -s 8 -d -1 -p cbr -e 512 -c 2 -a 0 -i 30 -k AGT 
- -t 0.040960000 -s 8 -d -1 -p cbr -e 512 -c 2 -a 0 -i 30 -k AGT
h -t 0.040960000 -s 8 -d -1 -p cbr -e 512 -c 2 -a 0 -i 30 -k AGT
+ -t 0.040960000 -s 9 -d -1 -p cbr -e 512 -c 2 -a 0 -i 31 -k AGT 
- -t 0.040960000 -s 9 -d -1 -p cbr -e 512 -c 2 -a 0 -i 31 -k AGT
h -t 0.040960000 -s 9 -d -1 -p cbr -e 512 -c 2 -a 0 -i 31 -k AGT
+ -t 0.040960000 -s 2 -d 1 -p cbr -e 548 -c 2 -a 0 -i 24 -k RTR 
- -t 0.040960000 -s 2 -d 1 -p cbr -e 548 -c 2 -a 0 -i 24 -k RTR
h -t 0.040960000 -s 2 -d 1 -p cbr -e 548 -c 2 -a 0 -i 24 -k RTR
+ -t 0.040960000 -s 3 -d 1 -p cbr -e 548 -c 2 -a 0 -i 25 -k RTR 
- -t 0.040960000 -s 3 -d 1 -p cbr -e 548 -c 2 -a 0 -i 25 -k RTR
h -t 0.040960000 -s 3 -d 1 -p cbr -e 548 -c 2 -a 0 -i 25 -k RTR
+ -t 0.040960000 -s 4 -d 1 -p cbr -e 548 -c 2 -a 0 -i 26 -k RTR 
- -t 0.040960000 -s 4 -d 1 -p cbr -e 548 -c 2 -a 0 -i 26 -k RTR
h -t 0.040960000 -s 4 -d 1 -p cbr -e 548 -c 2 -a 0 -i 26 -k RTR
+ -t 0.040960000 -s 5 -d 1 -p cbr -e 548 -c 2 -a 0 -i 27 -k RTR 
- -t 0.040960000 -s 5 -d 1 -p cbr -e 548 -c 2 -a 0 -i 27 -k RTR
h -t 0.040960000 -s 5 -d 1 -p cbr -e 548 -c 2 -a 0 -i 27 -k RTR
+ -t 0.040960000 -s 6 -d 1 -p cbr -e 548 -c 2 -a 0 -i 28 -k RTR 
- -t 0.040960000 -s 6 -d 1 -p cbr -e 548 -c 2 -a 0 -i 28 -k RTR
h -t 0.040960000 -s 6 -d 1 -p cbr -e 548 -c 2 -a 0 -i 28 -k RTR
+ -t 0.040960000 -s 7 -d 1 -p cbr -e 548 -c 2 -a 0 -i 29 -k RTR 
- -t 0.040960000 -s 7 -d 1 -p cbr -e 548 -c 2 -a 0 -i 29 -k RTR
h -t 0.040960000 -s 7 -d 1 -p cbr -e 548 -c 2 -a 0 -i 29 -k RTR
+ -t 0.040960000 -s 8 -d 1 -p cbr -e 548 -c 2 -a 0 -i 30 -k RTR 
- -t 0.040960000 -s 8 -d 1 -p cbr -e 548 -c 2 -a 0 -i 30 -k RTR
h -t 0.040960000 -s 8 -d 1 -p cbr -e 548 -c 2 -a 0 -i 30 -k RTR
+ -t 0.040960000 -s 9 -d 1 -p cbr -e 548 -c 2 -a 0 -i 31 -k RTR 
- -t 0.040960000 -s 9 -d 1 -p cbr -e 548 -c 2 -a 0 -i 31 -k RTR
h -t 0.040960000 -s 9 -d 1 -p cbr -e 548 -c 2 -a 0 -i 31 -k RTR
r -t 0.041124007 -s 1 -d 1 -p cbr -e 512 -c 2 -a 0 -i 2 -k AGT
r -t 0.048821608 -s 1 -d 1 -p cbr -e 512 -c 2 -a 0 -i 29 -k AGT
+ -t 0.049165954 -s 9 -d 1 -p cbr -e 548 -c 2 -a 0 -i 14 -k RTR 
- -t 0.049165954 -s 9 -d 1 -p cbr -e 548 -c 2 -a 0 -i 14 -k RTR
h -t 0.049165954 -s 9 -d 1 -p cbr -e 548 -c 2 -a 0 -i 14 -k RTR
+ -t 0.054494282 -s 7 -d 1 -p cbr -e 548 -c 2 -a 0 -i 10 -k RTR 
- -t 0.054494282 -s 7 -d 1 -p cbr -e 548 -c 2 -a 0 -i 10 -k RTR
h -t 0.054494282 -s 7 -d 1 -p cbr -e 548 -c 2 -a 0 -i 10 -k RTR
r -t 0.054730068 -s 1 -d 1 -p cbr -e 512 -c 2 -a 0 -i 26 -k AGT
r -t 0.063612935 -s 1 -d 1 -p cbr -e 512 -c 2 -a 0 -i 27 -k AGT
r -t 0.070288214 -s 1 -d 1 -p cbr -e 512 -c 2 -a 0 -i 8 -k AGT
r -t 0.076237213 -s 1 -d 1 -p cbr -e 512 -c 2 -a 0 -i 31 -k AGT
+ -t 0.081920000 -s 2 -d -1 -p cbr -e 512 -c 2 -a 0 -i 32 -k AGT 
- -t 0.081920000 -s 2 -d -1 -p cbr -e 512 -c 2 -a 0 -i 32 -k AGT
h -t 0.081920000 -s 2 -d -1 -p cbr -e 512 -c 2 -a 0 -i 32 -k AGT
+ -t 0.081920000 -s 3 -d -1 -p cbr -e 512 -c 2 -a 0 -i 33 -k AGT 
- -t 0.081920000 -s 3 -d -1 -p cbr -e 512 -c 2 -a 0 -i 33 -k AGT
h -t 0.081920000 -s 3 -d -1 -p cbr -e 512 -c 2 -a 0 -i 33 -k AGT
+ -t 0.081920000 -s 4 -d -1 -p cbr -e 512 -c 2 -a 0 -i 34 -k AGT 
- -t 0.081920000 -s 4 -d -1 -p cbr -e 512 -c 2 -a 0 -i 34 -k AGT
h -t 0.081920000 -s 4 -d -1 -p cbr -e 512 -c 2 -a 0 -i 34 -k AGT
+ -t 0.081920000 -s 5 -d -1 -p cbr -e 512 -c 2 -a 0 -i 35 -k AGT 
- -t 0.081920000 -s 5 -d -1 -p cbr -e 512 -c 2 -a 0 -i 35 -k AGT
h -t 0.081920000 -s 5 -d -1 -p cbr -e 512 -c 2 -a 0 -i 35 -k AGT
+ -t 0.081920000 -s 6 -d -1 -p cbr -e 512 -c 2 -a 0 -i 36 -k AGT 
- -t 0.081920000 -s 6 -d -1 -p cbr -e 512 -c 2 -a 0 -i 36 -k AGT
h -t 0.081920000 -s 6 -d -1 -p cbr -e 512 -c 2 -a 0 -i 36 -k AGT
+ -t 0.081920000 -s 7 -d -1 -p cbr -e 512 -c 2 -a 0 -i 37 -k AGT 
- -t 0.081920000 -s 7 -d -1 -p cbr -e 512 -c 2 -a 0 -i 37 -k AGT
h -t 0.081920000 -s 7 -d -1 -p cbr -e 512 -c 2 -a 0 -i 37 -k AGT
+ -t 0.081920000 -s 8 -d -1 -p cbr -e 512 -c 2 -a 0 -i 38 -k AGT 
- -t 0.081920000 -s 8 -d -1 -p cbr -e 512 -c 2 -a 0 -i 38 -k AGT
h -t 0.081920000 -s 8 -d -1 -p cbr -e 512 -c 2 -a 0 -i 38 -k AGT
+ -t 0.081920000 -s 9 -d -1 -p cbr -e 512 -c 2 -a 0 -i 39 -k AGT 
- -t 0.081920000 -s 9 -d -1 -p cbr -e 512 -c 2 -a 0 -i 39 -k AGT
h -t 0.081920000 -s 9 -d -1 -p cbr -e 512 -c 2 -a 0 -i 39 -k AGT
+ -t 0.081920000 -s 2 -d 1 -p cbr -e 548 -c 2 -a 0 -i 32 -k RTR 
- -t 0.081920000 -s 2 -d 1 -p cbr -e 548 -c 2 -a 0 -i 32 -k RTR
h -t 0.081920000 -s 2 -d 1 -p cbr -e 548 -c 2 -a 0 -i 32 -k RTR
+ -t 0.081920000 -s 3 -d 1 -p cbr -e 548 -c 2 -a 0 -i 33 -k RTR 
- -t 0.081920000 -s 3 -d 1 -p cbr -e 548 -c 2 -a 0 -i 33 -k RTR
h -t 0.081920000 -s 3 -d 1 -p cbr -e 548 -c 2 -a 0 -i 33 -k RTR
+ -t 0.081920000 -s 4 -d 1 -p cbr -e 548 -c 2 -a 0 -i 34 -k RTR 
- -t 0.081920000 -s 4 -d 1 -p cbr -e 548 -c 2 -a 0 -i 34 -k RTR
h -t 0.081920000 -s 4 -d 1 -p cbr -e 548 -c 2 -a 0 -i 34 -k RTR
+ -t 0.081920000 -s 5 -d 1 -p cbr -e 548 -c 2 -a 0 -i 35 -k RTR 
- -t 0.081920000 -s 5 -d 1 -p cbr -e 548 -c 2 -a 0 -i 35 -k RTR
h -t 0.081920000 -s 5 -d 1 -p cbr -e 548 -c 2 -a 0 -i 35 -k RTR
+ -t 0.081920000 -s 6 -d 1 -p cbr -e 548 -c 2 -a 0 -i 36 -k RTR 
- -t 0.081920000 -s 6 -d 1 -p cbr -e 548 -c 2 -a 0 -i 36 -k RTR
h -t 0.081920000 -s 6 -d 1 -p cbr -e 548 -c 2 -a 0 -i 36 -k RTR
+ -t 0.081920000 -s 7 -d 1 -p cbr -e 548 -c 2 -a 0 -i 37 -k RTR 
- -t 0.081920000 -s 7 -d 1 -p cbr -e 548 -c 2 -a 0 -i 37 -k RTR
h -t 0.081920000 -s 7 -d 1 -p cbr -e 548 -c 2 -a 0 -i 37 -k RTR
+ -t 0.081920000 -s 8 -d 1 -p cbr -e 548 -c 2 -a 0 -i 38 -k RTR 
- -t 0.081920000 -s 8 -d 1 -p cbr -e 548 -c 2 -a 0 -i 38 -k RTR
h -t 0.081920000 -s 8 -d 1 -p cbr -e 548 -c 2 -a 0 -i 38 -k RTR
+ -t 0.081920000 -s 9 -d 1 -p cbr -e 548 -c 2 -a 0 -i 39 -k RTR 
- -t 0.081920000 -s 9 -d 1 -p cbr -e 548 -c 2 -a 0 -i 39 -k RTR
h -t 0.081920000 -s 9 -d 1 -p cbr -e 548 -c 2 -a 0 -i 39 -k RTR
r -t 0.085485437 -s 1 -d 1 -p cbr -e 512 -c 2 -a 0 -i 14 -k AGT
r -t 0.091413897 -s 1 -d 1 -p cbr -e 512 -c 2 -a 0 -i 34 -k AGT
r -t 0.097362249 -s 1 -d 1 -p cbr -e 512 -c 2 -a 0 -i 12 -k AGT
r -t 0.103271474 -s 1 -d 1 -p cbr -e 512 -c 2 -a 0 -i 28 -k AGT
r -t 0.109160699 -s 1 -d 1 -p cbr -e 512 -c 2 -a 0 -i 36 -k AGT
r -t 0.115069240 -s 1 -d 1 -p cbr -e 512 -c 2 -a 0 -i 35 -k AGT
r -t 0.120998488 -s 1 -d 1 -p cbr -e 512 -c 2 -a 0 -i 10 -k AGT
+ -t 0.122880000 -s 2 -d -1 -p cbr -e 512 -c 2 -a 0 -i 40 -k AGT 
- -t 0.122880000 -s 2 -d -1 -p cbr -e 512 -c 2 -a 0 -i 40 -k AGT
h -t 0.122880000 -s 2 -d -1 -p cbr -e 512 -c 2 -a 0 -i 40 -k AGT
+ -t 0.122880000 -s 3 -d -1 -p cbr -e 512 -c 2 -a 0 -i 41 -k AGT 
- -t 0.122880000 -s 3 -d -1 -p cbr -e 512 -c 2 -a 0 -i 41 -k AGT
h -t 0.122880000 -s 3 -d -1 -p cbr -e 512 -c 2 -a 0 -i 41 -k AGT
+ -t 0.122880000 -s 4 -d -1 -p cbr -e 512 -c 2 -a 0 -i 42 -k AGT 
- -t 0.122880000 -s 4 -d -1 -p cbr -e 512 -c 2 -a 0 -i 42 -k AGT
h -t 0.122880000 -s 4 -d -1 -p cbr -e 512 -c 2 -a 0 -i 42 -k AGT
+ -t 0.122880000 -s 5 -d -1 -p cbr -e 512 -c 2 -a 0 -i 43 -k AGT 
- -t 0.122880000 -s 5 -d -1 -p cbr -e 512 -c 2 -a 0 -i 43 -k AGT
h -t 0.122880000 -s 5 -d -1 -p cbr -e 512 -c 2 -a 0 -i 43 -k AGT
+ -t 0.122880000 -s 6 -d -1 -p cbr -e 512 -c 2 -a 0 -i 44 -k AGT 
- -t 0.122880000 -s 6 -d -1 -p cbr -e 512 -c 2 -a 0 -i 44 -k AGT
h -t 0.122880000 -s 6 -d -1 -p cbr -e 512 -c 2 -a 0 -i 44 -k AGT
+ -t 0.122880000 -s 7 -d -1 -p cbr -e 512 -c 2 -a 0 -i 45 -k AGT 
- -t 0.122880000 -s 7 -d -1 -p cbr -e 512 -c 2 -a 0 -i 45 -k AGT
h -t 0.122880000 -s 7 -d -1 -p cbr -e 512 -c 2 -a 0 -i 45 -k AGT
+ -t 0.122880000 -s 8 -d -1 -p cbr -e 512 -c 2 -a 0 -i 46 -k AGT 
- -t 0.122880000 -s 8 -d -1 -p cbr -e 512 -c 2 -a 0 -i 46 -k AGT
h -t 0.122880000 -s 8 -d -1 -p cbr -e 512 -c 2 -a 0 -i 46 -k AGT
+ -t 0.122880000 -s 9 -d -1 -p cbr -e 512 -c 2 -a 0 -i 47 -k AGT 
- -t 0.122880000 -s 9 -d -1 -p cbr -e 512 -c 2 -a 0 -i 47 -k AGT
h -t 0.122880000 -s 9 -d -1 -p cbr -e 512 -c 2 -a 0 -i 47 -k AGT
+ -t 0.122880000 -s 2 -d 1 -p cbr -e 532 -c 2 -a 0 -i 40 -k RTR 
- -t 0.122880000 -s 2 -d 1 -p cbr -e 532 -c 2 -a 0 -i 40 -k RTR
h -t 0.122880000 -s 2 -d 1 -p cbr -e 532 -c 2 -a 0 -i 40 -k RTR
+ -t 0.122880000 -s 3 -d 1 -p cbr -e 532 -c 2 -a 0 -i 41 -k RTR 
- -t 0.122880000 -s 3 -d 1 -p cbr -e 532 -c 2 -a 0 -i 41 -k RTR
h -t 0.122880000 -s 3 -d 1 -p cbr -e 532 -c 2 -a 0 -i 41 -k RTR
+ -t 0.122880000 -s 4 -d 1 -p cbr -e 532 -c 2 -a 0 -i 42 -k RTR 
- -t 0.122880000 -s 4 -d 1 -p cbr -e 532 -c 2 -a 0 -i 42 -k RTR
h -t 0.122880000 -s 4 -d 1 -p cbr -e 532 -c 2 -a 0 -i 42 -k RTR
+ -t 0.122880000 -s 5 -d 1 -p cbr -e 532 -c 2 -a 0 -i 43 -k RTR 
- -t 0.122880000 -s 5 -d 1 -p cbr -e 532 -c 2 -a 0 -i 43 -k RTR
h -t 0.122880000 -s 5 -d 1 -p cbr -e 532 -c 2 -a 0 -i 43 -k RTR
+ -t 0.122880000 -s 6 -d 1 -p cbr -e 532 -c 2 -a 0 -i 44 -k RTR 
- -t 0.122880000 -s 6 -d 1 -p cbr -e 532 -c 2 -a 0 -i 44 -k RTR
h -t 0.122880000 -s 6 -d 1 -p cbr -e 532 -c 2 -a 0 -i 44 -k RTR
+ -t 0.122880000 -s 7 -d 1 -p cbr -e 532 -c 2 -a 0 -i 45 -k RTR 
- -t 0.122880000 -s 7 -d 1 -p cbr -e 532 -c 2 -a 0 -i 45 -k RTR
h -t 0.122880000 -s 7 -d 1 -p cbr -e 532 -c 2 -a 0 -i 45 -k RTR
+ -t 0.122880000 -s 8 -d 1 -p cbr -e 532 -c 2 -a 0 -i 46 -k RTR 
- -t 0.122880000 -s 8 -d 1 -p cbr -e 532 -c 2 -a 0 -i 46 -k RTR
h -t 0.122880000 -s 8 -d 1 -p cbr -e 532 -c 2 -a 0 -i 46 -k RTR
+ -t 0.122880000 -s 9 -d 1 -p cbr -e 532 -c 2 -a 0 -i 47 -k RTR 
- -t 0.122880000 -s 9 -d 1 -p cbr -e 532 -c 2 -a 0 -i 47 -k RTR
h -t 0.122880000 -s 9 -d 1 -p cbr -e 532 -c 2 -a 0 -i 47 -k RTR
r -t 0.126947736 -s 1 -d 1 -p cbr -e 512 -c 2 -a 0 -i 37 -k AGT
r -t 0.134560853 -s 1 -d 1 -p cbr -e 512 -c 2 -a 0 -i 43 -k AGT
r -t 0.142210709 -s 1 -d 1 -p cbr -e 512 -c 2 -a 0 -i 44 -k AGT
r -t 0.148219340 -s 1 -d 1 -p cbr -e 512 -c 2 -a 0 -i 0 -k AGT
r -t 0.154428339 -s 1 -d 1 -p cbr -e 512 -c 2 -a 0 -i 39 -k AGT
r -t 0.163838511 -s 1 -d 1 -p cbr -e 512 -c 2 -a 0 -i 45 -k AGT
+ -t 0.163840000 -s 2 -d -1 -p cbr -e 512 -c 2 -a 0 -i 48 -k AGT 
- -t 0.163840000 -s 2 -d -1 -p cbr -e 512 -c 2 -a 0 -i 48 -k AGT
h -t 0.163840000 -s 2 -d -1 -p cbr -e 512 -c 2 -a 0 -i 48 -k AGT
+ -t 0.163840000 -s 3 -d -1 -p cbr -e 512 -c 2 -a 0 -i 49 -k AGT 
- -t 0.163840000 -s 3 -d -1 -p cbr -e 512 -c 2 -a 0 -i 49 -k AGT
h -t 0.163840000 -s 3 -d -1 -p cbr -e 512 -c 2 -a 0 -i 49 -k AGT
+ -t 0.163840000 -s 4 -d -1 -p cbr -e 512 -c 2 -a 0 -i 50 -k AGT 
- -t 0.163840000 -s 4 -d -1 -p cbr -e 512 -c 2 -a 0 -i 50 -k AGT
h -t 0.163840000 -s 4 -d -1 -p cbr -e 512 -c 2 -a 0 -i 50 -k AGT
+ -t 0.163840000 -s 5 -d -1 -p cbr -e 512 -c 2 -a 0 -i 51 -k AGT 
- -t 0.163840000 -s 5 -d -1 -p cbr -e 512 -c 2 -a 0 -i 51 -k AGT
h -t 0.163840000 -s 5 -d -1 -p cbr -e 512 -c 2 -a 0 -i 51 -k AGT
+ -t 0.163840000 -s 6 -d -1 -p cbr -e 512 -c 2 -a 0 -i 52 -k AGT 
- -t 0.163840000 -s 6 -d -1 -p cbr -e 512 -c 2 -a 0 -i 52 -k AGT
h -t 0.163840000 -s 6 -d -1 -p cbr -e 512 -c 2 -a 0 -i 52 -k AGT
+ -t 0.163840000 -s 7 -d -1 -p cbr -e 512 -c 2 -a 0 -i 53 -k AGT 
- -t 0.163840000 -s 7 -d -1 -p cbr -e 512 -c 2 -a 0 -i 53 -k AGT
h -t 0.163840000 -s 7 -d -1 -p cbr -e 512 -c 2 -a 0 -i 53 -k AGT
+ -t 0.163840000 -s 8 -d -1 -p cbr -e 512 -c 2 -a 0 -i 54 -k AGT 
- -t 0.163840000 -s 8 -d -1 -p cbr -e 512 -c 2 -a 0 -i 54 -k AGT
h -t 0.163840000 -s 8 -d -1 -p cbr -e 512 -c 2 -a 0 -i 54 -k AGT
+ -t 0.163840000 -s 9 -d -1 -p cbr -e 512 -c 2 -a 0 -i 55 -k AGT 
- -t 0.163840000 -s 9 -d -1 -p cbr -e 512 -c 2 -a 0 -i 55 -k AGT
h -t 0.163840000 -s 9 -d -1 -p cbr -e 512 -c 2 -a 0 -i 55 -k AGT
+ -t 0.163840000 -s 2 -d 1 -p cbr -e 532 -c 2 -a 0 -i 48 -k RTR 
- -t 0.163840000 -s 2 -d 1 -p cbr -e 532 -c 2 -a 0 -i 48 -k RTR
h -t 0.163840000 -s 2 -d 1 -p cbr -e 532 -c 2 -a 0 -i 48 -k RTR
+ -t 0.163840000 -s 3 -d 1 -p cbr -e 532 -c 2 -a 0 -i 49 -k RTR 
- -t 0.163840000 -s 3 -d 1 -p cbr -e 532 -c 2 -a 0 -i 49 -k RTR
h -t 0.163840000 -s 3 -d 1 -p cbr -e 532 -c 2 -a 0 -i 49 -k RTR
+ -t 0.163840000 -s 4 -d 1 -p cbr -e 532 -c 2 -a 0 -i 50 -k RTR 
- -t 0.163840000 -s 4 -d 1 -p cbr -e 532 -c 2 -a 0 -i 50 -k RTR
h -t 0.163840000 -s 4 -d 1 -p cbr -e 532 -c 2 -a 0 -i 50 -k RTR
+ -t 0.163840000 -s 5 -d 1 -p cbr -e 532 -c 2 -a 0 -i 51 -k RTR 
- -t 0.163840000 -s 5 -d 1 -p cbr -e 532 -c 2 -a 0 -i 51 -k RTR
h -t 0.163840000 -s 5 -d 1 -p cbr -e 532 -c 2 -a 0 -i 51 -k RTR
+ -t 0.163840000 -s 6 -d 1 -p cbr -e 532 -c 2 -a 0 -i 52 -k RTR 
- -t 0.163840000 -s 6 -d 1 -p cbr -e 532 -c 2 -a 0 -i 52 -k RTR
h -t 0.163840000 -s 6 -d 1 -p cbr -e 532 -c 2 -a 0 -i 52 -k RTR
+ -t 0.163840000 -s 7 -d 1 -p cbr -e 532 -c 2 -a 0 -i 53 -k RTR 
- -t 0.163840000 -s 7 -d 1 -p cbr -e 532 -c 2 -a 0 -i 53 -k RTR
h -t 0.163840000 -s 7 -d 1 -p cbr -e 532 -c 2 -a 0 -i 53 -k RTR
+ -t 0.163840000 -s 8 -d 1 -p cbr -e 532 -c 2 -a 0 -i 54 -k RTR 
- -t 0.163840000 -s 8 -d 1 -p cbr -e 532 -c 2 -a 0 -i 54 -k RTR
h -t 0.163840000 -s 8 -d 1 -p cbr -e 532 -c 2 -a 0 -i 54 -k RTR
+ -t 0.163840000 -s 9 -d 1 -p cbr -e 532 -c 2 -a 0 -i 55 -k RTR 
- -t 0.163840000 -s 9 -d 1 -p cbr -e 532 -c 2 -a 0 -i 55 -k RTR
h -t 0.163840000 -s 9 -d 1 -p cbr -e 532 -c 2 -a 0 -i 55 -k RTR
r -t 0.169599736 -s 1 -d 1 -p cbr -e 512 -c 2 -a 0 -i 52 -k AGT
r -t 0.175528367 -s 1 -d 1 -p cbr -e 512 -c 2 -a 0 -i 24 -k AGT
r -t 0.181536998 -s 1 -d 1 -p cbr -e 512 -c 2 -a 0 -i 32 -k AGT
r -t 0.187317538 -s 1 -d 1 -p cbr -e 512 -c 2 -a 0 -i 51 -k AGT
r -t 0.193278786 -s 1 -d 1 -p cbr -e 512 -c 2 -a 0 -i 53 -k AGT
r -t 0.199247139 -s 1 -d 1 -p cbr -e 512 -c 2 -a 0 -i 30 -k AGT
+ -t 0.204800000 -s 2 -d -1 -p cbr -e 512 -c 2 -a 0 -i 56 -k AGT 
- -t 0.204800000 -s 2 -d -1 -p cbr -e 512 -c 2 -a 0 -i 56 -k AGT
h -t 0.204800000 -s 2 -d -1 -p cbr -e 512 -c 2 -a 0 -i 56 -k AGT
+ -t 0.204800000 -s 3 -d -1 -p cbr -e 512 -c 2 -a 0 -i 57 -k AGT 
- -t 0.204800000 -s 3 -d -1 -p cbr -e 512 -c 2 -a 0 -i 57 -k AGT
h -t 0.204800000 -s 3 -d -1 -p cbr -e 512 -c 2 -a 0 -i 57 -k AGT
+ -t 0.204800000 -s 4 -d -1 -p cbr -e 512 -c 2 -a 0 -i 58 -k AGT 
- -t 0.204800000 -s 4 -d -1 -p cbr -e 512 -c 2 -a 0 -i 58 -k AGT
h -t 0.204800000 -s 4 -d -1 -p cbr -e 512 -c 2 -a 0 -i 58 -k AGT
+ -t 0.204800000 -s 5 -d -1 -p cbr -e 512 -c 2 -a 0 -i 59 -k AGT 
- -t 0.204800000 -s 5 -d -1 -p cbr -e 512 -c 2 -a 0 -i 59 -k AGT
h -t 0.204800000 -s 5 -d -1 -p cbr -e 512 -c 2 -a 0 -i 59 -k AGT
+ -t 0.204800000 -s 6 -d -1 -p cbr -e 512 -c 2 -a 0 -i 60 -k AGT 
- -t 0.204800000 -s 6 -d -1 -p cbr -e 512 -c 2 -a 0 -i 60 -k AGT
h -t 0.204800000 -s 6 -d -1 -p cbr -e 512 -c 2 -a 0 -i 60 -k AGT
+ -t 0.204800000 -s 7 -d -1 -p cbr -e 512 -c 2 -a 0 -i 61 -k AGT 
- -t 0.204800000 -s 7 -d -1 -p cbr -e 512 -c 2 -a 0 -i 61 -k AGT
h -t 0.204800000 -s 7 -d -1 -p cbr -e 512 -c 2 -a 0 -i 61 -k AGT
+ -t 0.204800000 -s 8 -d -1 -p cbr -e 512 -c 2 -a 0 -i 62 -k AGT 
- -t 0.204800000 -s 8 -d -1 -p cbr -e 512 -c 2 -a 0 -i 62 -k AGT
h -t 0.204800000 -s 8 -d -1 -p cbr -e 512 -c 2 -a 0 -i 62 -k AGT
+ -t 0.204800000 -s 9 -d -1 -p cbr -e 512 -c 2 -a 0 -i 63 -k AGT 
- -t 0.204800000 -s 9 -d -1 -p cbr -e 512 -c 2 -a 0 -i 63 -k AGT
h -t 0.204800000 -s 9 -d -1 -p cbr -e 512 -c 2 -a 0 -i 63 -k AGT
+ -t 0.204800000 -s 2 -d 1 -p cbr -e 532 -c 2 -a 0 -i 56 -k RTR 
- -t 0.204800000 -s 2 -d 1 -p cbr -e 532 -c 2 -a 0 -i 56 -k RTR
h -t 0.204800000 -s 2 -d 1 -p cbr -e 532 -c 2 -a 0 -i 56 -k RTR
+ -t 0.204800000 -s 3 -d 1 -p cbr -e 532 -c 2 -a 0 -i 57 -k RTR 
- -t 0.204800000 -s 3 -d 1 -p cbr -e 532 -c 2 -a 0 -i 57 -k RTR
h -t 0.204800000 -s 3 -d 1 -p cbr -e 532 -c 2 -a 0 -i 57 -k RTR
+ -t 0.204800000 -s 4 -d 1 -p cbr -e 532 -c 2 -a 0 -i 58 -k RTR 
- -t 0.204800000 -s 4 -d 1 -p cbr -e 532 -c 2 -a 0 -i 58 -k RTR
h -t 0.204800000 -s 4 -d 1 -p cbr -e 532 -c 2 -a 0 -i 58 -k RTR
+ -t 0.204800000 -s 5 -d 1 -p cbr -e 532 -c 2 -a 0 -i 59 -k RTR 
- -t 0.204800000 -s 5 -d 1 -p cbr -e 532 -c 2 -a 0 -i 59 -k RTR
h -t 0.204800000 -s 5 -d 1 -p cbr -e 532 -c 2 -a 0 -i 59 -k RTR
+ -t 0.204800000 -s 6 -d 1 -p cbr -e 532 -c 2 -a 0 -i 60 -k RTR 
- -t 0.204800000 -s 6 -d 1 -p cbr -e 532 -c 2 -a 0 -i 60 -k RTR
h -t 0.204800000 -s 6 -d 1 -p cbr -e 532 -c 2 -a 0 -i 60 -k RTR
+ -t 0.204800000 -s 7 -d 1 -p cbr -e 532 -c 2 -a 0 -i 61 -k RTR 
- -t 0.204800000 -s 7 -d 1 -p cbr -e 532 -c 2 -a 0 -i 61 -k RTR
h -t 0.204800000 -s 7 -d 1 -p cbr -e 532 -c 2 -a 0 -i 61 -k RTR
+ -t 0.204800000 -s 8 -d 1 -p cbr -e 532 -c 2 -a 0 -i 62 -k RTR 
- -t 0.204800000 -s 8 -d 1 -p cbr -e 532 -c 2 -a 0 -i 62 -k RTR
h -t 0.204800000 -s 8 -d 1 -p cbr -e 532 -c 2 -a 0 -i 62 -k RTR
+ -t 0.204800000 -s 9 -d 1 -p cbr -e 532 -c 2 -a 0 -i 63 -k RTR 
- -t 0.204800000 -s 9 -d 1 -p cbr -e 532 -c 2 -a 0 -i 63 -k RTR
h -t 0.204800000 -s 9 -d 1 -p cbr -e 532 -c 2 -a 0 -i 63 -k RTR
r -t 0.205135491 -s 1 -d 1 -p cbr -e 512 -c 2 -a 0 -i 38 -k AGT
r -t 0.210976716 -s 1 -d 1 -p cbr -e 512 -c 2 -a 0 -i 60 -k AGT
r -t 0.216857347 -s 1 -d 1 -p cbr -e 512 -c 2 -a 0 -i 40 -k AGT
r -t 0.222657978 -s 1 -d 1 -p cbr -e 512 -c 2 -a 0 -i 48 -k AGT
r -t 0.228438518 -s 1 -d 1 -p cbr -e 512 -c 2 -a 0 -i 59 -k AGT
r -t 0.234238871 -s 1 -d 1 -p cbr -e 512 -c 2 -a 0 -i 46 -k AGT
r -t 0.240019870 -s 1 -d 1 -p cbr -e 512 -c 2 -a 0 -i 47 -k AGT
+ -t 0.245760000 -s 2 -d -1 -p cbr -e 512 -c 2 -a 0 -i 64 -k AGT 
- -t 0.245760000 -s 2 -d -1 -p cbr -e 512 -c 2 -a 0 -i 64 -k AGT
h -t 0.245760000 -s 2 -d -1 -p cbr -e 512 -c 2 -a 0 -i 64 -k AGT
+ -t 0.245760000 -s 3 -d -1 -p cbr -e 512 -c 2 -a 0 -i 65 -k AGT 
- -t 0.245760000 -s 3 -d -1 -p cbr -e 512 -c 2 -a 0 -i 65 -k AGT
h -t 0.245760000 -s 3 -d -1 -p cbr -e 512 -c 2 -a 0 -i 65 -k AGT
+ -t 0.245760000 -s 4 -d -1 -p cbr -e 512 -c 2 -a 0 -i 66 -k AGT 
- -t 0.245760000 -s 4 -d -1 -p cbr -e 512 -c 2 -a 0 -i 66 -k AGT
h -t 0.245760000 -s 4 -d -1 -p cbr -e 512 -c 2 -a 0 -i 66 -k AGT
+ -t 0.245760000 -s 5 -d -1 -p cbr -e 512 -c 2 -a 0 -i 67 -k AGT 
- -t 0.245760000 -s 5 -d -1 -p cbr -e 512 -c 2 -a 0 -i 67 -k AGT
h -t 0.245760000 -s 5 -d -1 -p cbr -e 512 -c 2 -a 0 -i 67 -k AGT
+ -t 0.245760000 -s 6 -d -1 -p cbr -e 512 -c 2 -a 0 -i 68 -k AGT 
- -t 0.245760000 -s 6 -d -1 -p cbr -e 512 -c 2 -a 0 -i 68 -k AGT
h -t 0.245760000 -s 6 -d -1 -p cbr -e 512 -c 2 -a 0 -i 68 -k AGT
+ -t 0.245760000 -s 7 -d -1 -p cbr -e 512 -c 2 -a 0 -i 69 -k AGT 
- -t 0.245760000 -s 7 -d -1 -p cbr -e 512 -c 2 -a 0 -i 69 -k AGT
h -t 0.245760000 -s 7 -d -1 -p cbr -e 512 -c 2 -a 0 -i 69 -k AGT
+ -t 0.245760000 -s 8 -d -1 -p cbr -e 512 -c 2 -a 0 -i 70 -k AGT 
- -t 0.245760000 -s 8 -d -1 -p cbr -e 512 -c 2 -a 0 -i 70 -k AGT
h -t 0.245760000 -s 8 -d -1 -p cbr -e 512 -c 2 -a 0 -i 70 -k AGT
+ -t 0.245760000 -s 9 -d -1 -p cbr -e 512 -c 2 -a 0 -i 71 -k AGT 
- -t 0.245760000 -s 9 -d -1 -p cbr -e 512 -c 2 -a 0 -i 71 -k AGT
h -t 0.245760000 -s 9 -d -1 -p cbr -e 512 -c 2 -a 0 -i 71 -k AGT
+ -t 0.245760000 -s 2 -d 1 -p cbr -e 532 -c 2 -a 0 -i 64 -k RTR 
- -t 0.245760000 -s 2 -d 1 -p cbr -e 532 -c 2 -a 0 -i 64 -k RTR
h -t 0.245760000 -s 2 -d 1 -p cbr -e 532 -c 2 -a 0 -i 64 -k RTR
+ -t 0.245760000 -s 3 -d 1 -p cbr -e 532 -c 2 -a 0 -i 65 -k RTR 
- -t 0.245760000 -s 3 -d 1 -p cbr -e 532 -c 2 -a 0 -i 65 -k RTR
h -t 0.245760000 -s 3 -d 1 -p cbr -e 532 -c 2 -a 0 -i 65 -k RTR
+ -t 0.245760000 -s 4 -d 1 -p cbr -e 532 -c 2 -a 0 -i 66 -k RTR 
- -t 0.245760000 -s 4 -d 1 -p cbr -e 532 -c 2 -a 0 -i 66 -k RTR
h -t 0.245760000 -s 4 -d 1 -p cbr -e 532 -c 2 -a 0 -i 66 -k RTR
+ -t 0.245760000 -s 5 -d 1 -p cbr -e 532 -c 2 -a 0 -i 67 -k RTR 
- -t 0.245760000 -s 5 -d 1 -p cbr -e 532 -c 2 -a 0 -i 67 -k RTR
h -t 0.245760000 -s 5 -d 1 -p cbr -e 532 -c 2 -a 0 -i 67 -k RTR
+ -t 0.245760000 -s 6 -d 1 -p cbr -e 532 -c 2 -a 0 -i 68 -k RTR 
- -t 0.245760000 -s 6 -d 1 -p cbr -e 532 -c 2 -a 0 -i 68 -k RTR
h -t 0.245760000 -s 6 -d 1 -p cbr -e 532 -c 2 -a 0 -i 68 -k RTR
+ -t 0.245760000 -s 7 -d 1 -p cbr -e 532 -c 2 -a 0 -i 69 -k RTR 
- -t 0.245760000 -s 7 -d 1 -p cbr -e 532 -c 2 -a 0 -i 69 -k RTR
h -t 0.245760000 -s 7 -d 1 -p cbr -e 532 -c 2 -a 0 -i 69 -k RTR
+ -t 0.245760000 -s 8 -d 1 -p cbr -e 532 -c 2 -a 0 -i 70 -k RTR 
- -t 0.245760000 -s 8 -d 1 -p cbr -e 532 -c 2 -a 0 -i 70 -k RTR
h -t 0.245760000 -s 8 -d 1 -p cbr -e 532 -c 2 -a 0 -i 70 -k RTR
+ -t 0.245760000 -s 9 -d 1 -p cbr -e 532 -c 2 -a 0 -i 71 -k RTR 
- -t 0.245760000 -s 9 -d 1 -p cbr -e 532 -c 2 -a 0 -i 71 -k RTR
h -t 0.245760000 -s 9 -d 1 -p cbr -e 532 -c 2 -a 0 -i 71 -k RTR
r -t 0.246847203 -s 1 -d 1 -p cbr -e 512 -c 2 -a 0 -i 55 -k AGT
r -t 0.252628428 -s 1 -d 1 -p cbr -e 512 -c 2 -a 0 -i 68 -k AGT
r -t 0.258428780 -s 1 -d 1 -p cbr -e 512 -c 2 -a 0 -i 54 -k AGT
r -t 0.264209779 -s 1 -d 1 -p cbr -e 512 -c 2 -a 0 -i 63 -k AGT
r -t 0.270010778 -s 1 -d 1 -p cbr -e 512 -c 2 -a 0 -i 71 -k AGT
r -t 0.275791409 -s 1 -d 1 -p cbr -e 512 -c 2 -a 0 -i 56 -k AGT
r -t 0.281700453 -s 1 -d 1 -p cbr -e 512 -c 2 -a 0 -i 25 -k AGT
+ -t 0.286720000 -s 2 -d -1 -p cbr -e 512 -c 2 -a 0 -i 72 -k AGT 
- -t 0.286720000 -s 2 -d -1 -p cbr -e 512 -c 2 -a 0 -i 72 -k AGT
h -t 0.286720000 -s 2 -d -1 -p cbr -e 512 -c 2 -a 0 -i 72 -k AGT
+ -t 0.286720000 -s 3 -d -1 -p cbr -e 512 -c 2 -a 0 -i 73 -k AGT 
- -t 0.286720000 -s 3 -d -1 -p cbr -e 512 -c 2 -a 0 -i 73 -k AGT
h -t 0.286720000 -s 3 -d -1 -p cbr -e 512 -c 2 -a 0 -i 73 -k AGT
+ -t 0.286720000 -s 4 -d -1 -p cbr -e 512 -c 2 -a 0 -i 74 -k AGT 
- -t 0.286720000 -s 4 -d -1 -p cbr -e 512 -c 2 -a 0 -i 74 -k AGT
h -t 0.286720000 -s 4 -d -1 -p cbr -e 512 -c 2 -a 0 -i 74 -k AGT
+ -t 0.286720000 -s 5 -d -1 -p cbr -e 512 -c 2 -a 0 -i 75 -k AGT 
- -t 0.286720000 -s 5 -d -1 -p cbr -e 512 -c 2 -a 0 -i 75 -k AGT
h -t 0.286720000 -s 5 -d -1 -p cbr -e 512 -c 2 -a 0 -i 75 -k AGT
+ -t 0.286720000 -s 6 -d -1 -p cbr -e 512 -c 2 -a 0 -i 76 -k AGT 
- -t 0.286720000 -s 6 -d -1 -p cbr -e 512 -c 2 -a 0 -i 76 -k AGT
h -t 0.286720000 -s 6 -d -1 -p cbr -e 512 -c 2 -a 0 -i 76 -k AGT
+ -t 0.286720000 -s 7 -d -1 -p cbr -e 512 -c 2 -a 0 -i 77 -k AGT 
- -t 0.286720000 -s 7 -d -1 -p cbr -e 512 -c 2 -a 0 -i 77 -k AGT
h -t 0.286720000 -s 7 -d -1 -p cbr -e 512 -c 2 -a 0 -i 77 -k AGT
+ -t 0.286720000 -s 8 -d -1 -p cbr -e 512 -c 2 -a 0 -i 78 -k AGT 
- -t 0.286720000 -s 8 -d -1 -p cbr -e 512 -c 2 -a 0 -i 78 -k AGT
h -t 0.286720000 -s 8 -d -1 -p cbr -e 512 -c 2 -a 0 -i 78 -k AGT
+ -t 0.286720000 -s 9 -d -1 -p cbr -e 512 -c 2 -a 0 -i 79 -k AGT 
- -t 0.286720000 -s 9 -d -1 -p cbr -e 512 -c 2 -a 0 -i 79 -k AGT
h -t 0.286720000 -s 9 -d -1 -p cbr -e 512 -c 2 -a 0 -i 79 -k AGT
+ -t 0.286720000 -s 2 -d 1 -p cbr -e 532 -c 2 -a 0 -i 72 -k RTR 