V -t * -v 1.0a5 -a 0
W -t * -x 100 -y 100
A -t * -n 1 -p 0 -o 0x7fffffff -c 30 -a 1
A -t * -h 1 -m 1073741823 -s 0
n -t 0.000000 -s 2 -x 46.217861 -y 83.590635 -U 0.000000 -V 0.000000 -T 0.000000
n -t 0.000000 -s 3 -x 7.794581 -y 3.517915 -U 0.000000 -V 0.000000 -T 0.000000
n -t 0.000000 -s 4 -x 25.599487 -y 50.570151 -U 0.000000 -V 0.000000 -T 0.000000
n -t 0.000000 -s 5 -x 32.521605 -y 90.617491 -U 0.000000 -V 0.000000 -T 0.000000
n -t 0.000000 -s 6 -x 8.177853 -y 45.173140 -U 0.000000 -V 0.000000 -T 0.000000
n -t 0.000000 -s 7 -x 24.962934 -y 52.032942 -U 0.000000 -V 0.000000 -T 0.000000
n -t 0.000000 -s 8 -x 17.658931 -y 93.651392 -U 0.000000 -V 0.000000 -T 0.000000
n -t 0.000000 -s 9 -x 98.940345 -y 90.372028 -U 0.000000 -V 0.000000 -T 0.000000
n -t 0.000000 -s 10 -x 82.681043 -y 20.292367 -U 0.000000 -V 0.000000 -T 0.000000
n -t 0.000000 -s 11 -x 53.805975 -y 17.022425 -U 0.000000 -V 0.000000 -T 0.000000
n -t 0.000000 -s 12 -x 95.889776 -y 19.472475 -U 0.000000 -V 0.000000 -T 0.000000
n -t 0.000000 -s 13 -x 73.893358 -y 25.671609 -U 0.000000 -V 0.000000 -T 0.000000
n -t 0.000000 -s 14 -x 62.724483 -y 10.379449 -U 0.000000 -V 0.000000 -T 0.000000
n -t 0.000000 -s 15 -x 47.403316 -y 7.530262 -U 0.000000 -V 0.000000 -T 0.000000
n -t 0.000000 -s 16 -x 61.117327 -y 98.908778 -U 0.000000 -V 0.000000 -T 0.000000
n -t 0.000000 -s 17 -x 59.827935 -y 28.099270 -U 0.000000 -V 0.000000 -T 0.000000
n -t 0.000000 -s 18 -x 64.424491 -y 82.417977 -U 0.000000 -V 0.000000 -T 0.000000
n -t 0.000000 -s 19 -x 98.935320 -y 5.920026 -U 0.000000 -V 0.000000 -T 0.000000
n -t 0.000000 -s 20 -x 97.870527 -y 9.942157 -U 0.000000 -V 0.000000 -T 0.000000
n -t 0.000000 -s 21 -x 97.827429 -y 85.593681 -U 0.000000 -V 0.000000 -T 0.000000
n -t 0.000000 -s 22 -x 72.997866 -y 75.132290 -U 0.000000 -V 0.000000 -T 0.000000
n -t 0.000000 -s 23 -x 48.393047 -y 41.945147 -U 0.000000 -V 0.000000 -T 0.000000
n -t 0.000000 -s 24 -x 72.092254 -y 54.511879 -U 0.000000 -V 0.000000 -T 0.000000
n -t 0.000000 -s 25 -x 81.157242 -y 9.769968 -U 0.000000 -V 0.000000 -T 0.000000
n -t 0.000000 -s 26 -x 3.844258 -y 10.443503 -U 0.000000 -V 0.000000 -T 0.000000
n -t 0.000000 -s 27 -x 23.951713 -y 56.440507 -U 0.000000 -V 0.000000 -T 0.000000
n -t 0.000000 -s 28 -x 95.606542 -y 59.155376 -U 0.000000 -V 0.000000 -T 0.000000
n -t 0.000000 -s 29 -x 24.402928 -y 40.015444 -U 0.000000 -V 0.000000 -T 0.000000
n -t 0.000000 -s 30 -x 39.563258 -y 39.682081 -U 0.000000 -V 0.000000 -T 0.000000
n -t 0.000000 -s 31 -x 36.743769 -y 52.528270 -U 0.000000 -V 0.000000 -T 0.000000
n -t 0.000000 -s 32 -x 42.637567 -y 9.585592 -U 0.000000 -V 0.000000 -T 0.000000
n -t 0.000000 -s 33 -x 5.046569 -y 17.685176 -U 0.000000 -V 0.000000 -T 0.000000
n -t 0.000000 -s 34 -x 34.744781 -y 55.526315 -U 0.000000 -V 0.000000 -T 0.000000
n -t 0.000000 -s 35 -x 30.770408 -y 58.251236 -U 0.000000 -V 0.000000 -T 0.000000
n -t 0.000000 -s 36 -x 28.516193 -y 71.651508 -U 0.000000 -V 0.000000 -T 0.000000
n -t 0.000000 -s 37 -x 46.887811 -y 43.446003 -U 0.000000 -V 0.000000 -T 0.000000
n -t 0.000000 -s 38 -x 96.975786 -y 72.039294 -U 0.000000 -V 0.000000 -T 0.000000
n -t 0.000000 -s 39 -x 64.408729 -y 17.512595 -U 0.000000 -V 0.000000 -T 0.000000
n -t 0.000000 -s 0 -x 0.000000 -y 0.000000 -U 0.000000 -V 0.000000 -T 0.000000
n -t 0.000000 -s 1 -x 90.000000 -y 90.000000 -U -0.000000 -V -0.000000 -T 0.000000
+ -t 0.000000000 -s 2 -d -1 -p cbr -e 512 -c 2 -a 0 -i 0 -k AGT 
- -t 0.000000000 -s 2 -d -1 -p cbr -e 512 -c 2 -a 0 -i 0 -k AGT
h -t 0.000000000 -s 2 -d -1 -p cbr -e 512 -c 2 -a 0 -i 0 -k AGT
+ -t 0.000000000 -s 3 -d -1 -p cbr -e 512 -c 2 -a 0 -i 2 -k AGT 
- -t 0.000000000 -s 3 -d -1 -p cbr -e 512 -c 2 -a 0 -i 2 -k AGT
h -t 0.000000000 -s 3 -d -1 -p cbr -e 512 -c 2 -a 0 -i 2 -k AGT
+ -t 0.000000000 -s 4 -d -1 -p cbr -e 512 -c 2 -a 0 -i 4 -k AGT 
- -t 0.000000000 -s 4 -d -1 -p cbr -e 512 -c 2 -a 0 -i 4 -k AGT
h -t 0.000000000 -s 4 -d -1 -p cbr -e 512 -c 2 -a 0 -i 4 -k AGT
+ -t 0.000000000 -s 5 -d -1 -p cbr -e 512 -c 2 -a 0 -i 6 -k AGT 
- -t 0.000000000 -s 5 -d -1 -p cbr -e 512 -c 2 -a 0 -i 6 -k AGT
h -t 0.000000000 -s 5 -d -1 -p cbr -e 512 -c 2 -a 0 -i 6 -k AGT
+ -t 0.000000000 -s 6 -d -1 -p cbr -e 512 -c 2 -a 0 -i 8 -k AGT 
- -t 0.000000000 -s 6 -d -1 -p cbr -e 512 -c 2 -a 0 -i 8 -k AGT
h -t 0.000000000 -s 6 -d -1 -p cbr -e 512 -c 2 -a 0 -i 8 -k AGT
+ -t 0.000000000 -s 7 -d -1 -p cbr -e 512 -c 2 -a 0 -i 10 -k AGT 
- -t 0.000000000 -s 7 -d -1 -p cbr -e 512 -c 2 -a 0 -i 10 -k AGT
h -t 0.000000000 -s 7 -d -1 -p cbr -e 512 -c 2 -a 0 -i 10 -k AGT
+ -t 0.000000000 -s 8 -d -1 -p cbr -e 512 -c 2 -a 0 -i 12 -k AGT 
- -t 0.000000000 -s 8 -d -1 -p cbr -e 512 -c 2 -a 0 -i 12 -k AGT
h -t 0.000000000 -s 8 -d -1 -p cbr -e 512 -c 2 -a 0 -i 12 -k AGT
+ -t 0.000000000 -s 9 -d -1 -p cbr -e 512 -c 2 -a 0 -i 14 -k AGT 
- -t 0.000000000 -s 9 -d -1 -p cbr -e 512 -c 2 -a 0 -i 14 -k AGT
h -t 0.000000000 -s 9 -d -1 -p cbr -e 512 -c 2 -a 0 -i 14 -k AGT
+ -t 0.000000000 -s 10 -d -1 -p cbr -e 512 -c 2 -a 0 -i 16 -k AGT 
- -t 0.000000000 -s 10 -d -1 -p cbr -e 512 -c 2 -a 0 -i 16 -k AGT
h -t 0.000000000 -s 10 -d -1 -p cbr -e 512 -c 2 -a 0 -i 16 -k AGT
+ -t 0.000000000 -s 11 -d -1 -p cbr -e 512 -c 2 -a 0 -i 18 -k AGT 
- -t 0.000000000 -s 11 -d -1 -p cbr -e 512 -c 2 -a 0 -i 18 -k AGT
h -t 0.000000000 -s 11 -d -1 -p cbr -e 512 -c 2 -a 0 -i 18 -k AGT
+ -t 0.000000000 -s 12 -d -1 -p cbr -e 512 -c 2 -a 0 -i 20 -k AGT 
- -t 0.000000000 -s 12 -d -1 -p cbr -e 512 -c 2 -a 0 -i 20 -k AGT
h -t 0.000000000 -s 12 -d -1 -p cbr -e 512 -c 2 -a 0 -i 20 -k AGT
+ -t 0.000000000 -s 13 -d -1 -p cbr -e 512 -c 2 -a 0 -i 22 -k AGT 
- -t 0.000000000 -s 13 -d -1 -p cbr -e 512 -c 2 -a 0 -i 22 -k AGT
h -t 0.000000000 -s 13 -d -1 -p cbr -e 512 -c 2 -a 0 -i 22 -k AGT
+ -t 0.000000000 -s 14 -d -1 -p cbr -e 512 -c 2 -a 0 -i 24 -k AGT 
- -t 0.000000000 -s 14 -d -1 -p cbr -e 512 -c 2 -a 0 -i 24 -k AGT
h -t 0.000000000 -s 14 -d -1 -p cbr -e 512 -c 2 -a 0 -i 24 -k AGT
+ -t 0.000000000 -s 15 -d -1 -p cbr -e 512 -c 2 -a 0 -i 26 -k AGT 
- -t 0.000000000 -s 15 -d -1 -p cbr -e 512 -c 2 -a 0 -i 26 -k AGT
h -t 0.000000000 -s 15 -d -1 -p cbr -e 512 -c 2 -a 0 -i 26 -k AGT
+ -t 0.000000000 -s 16 -d -1 -p cbr -e 512 -c 2 -a 0 -i 28 -k AGT 
- -t 0.000000000 -s 16 -d -1 -p cbr -e 512 -c 2 -a 0 -i 28 -k AGT
h -t 0.000000000 -s 16 -d -1 -p cbr -e 512 -c 2 -a 0 -i 28 -k AGT
+ -t 0.000000000 -s 17 -d -1 -p cbr -e 512 -c 2 -a 0 -i 30 -k AGT 
- -t 0.000000000 -s 17 -d -1 -p cbr -e 512 -c 2 -a 0 -i 30 -k AGT
h -t 0.000000000 -s 17 -d -1 -p cbr -e 512 -c 2 -a 0 -i 30 -k AGT
+ -t 0.000000000 -s 18 -d -1 -p cbr -e 512 -c 2 -a 0 -i 32 -k AGT 
- -t 0.000000000 -s 18 -d -1 -p cbr -e 512 -c 2 -a 0 -i 32 -k AGT
h -t 0.000000000 -s 18 -d -1 -p cbr -e 512 -c 2 -a 0 -i 32 -k AGT
+ -t 0.000000000 -s 19 -d -1 -p cbr -e 512 -c 2 -a 0 -i 34 -k AGT 
- -t 0.000000000 -s 19 -d -1 -p cbr -e 512 -c 2 -a 0 -i 34 -k AGT
h -t 0.000000000 -s 19 -d -1 -p cbr -e 512 -c 2 -a 0 -i 34 -k AGT
+ -t 0.000000000 -s 20 -d -1 -p cbr -e 512 -c 2 -a 0 -i 36 -k AGT 
- -t 0.000000000 -s 20 -d -1 -p cbr -e 512 -c 2 -a 0 -i 36 -k AGT
h -t 0.000000000 -s 20 -d -1 -p cbr -e 512 -c 2 -a 0 -i 36 -k AGT
+ -t 0.000000000 -s 21 -d -1 -p cbr -e 512 -c 2 -a 0 -i 38 -k AGT 
- -t 0.000000000 -s 21 -d -1 -p cbr -e 512 -c 2 -a 0 -i 38 -k AGT
h -t 0.000000000 -s 21 -d -1 -p cbr -e 512 -c 2 -a 0 -i 38 -k AGT
+ -t 0.000000000 -s 22 -d -1 -p cbr -e 512 -c 2 -a 0 -i 40 -k AGT 
- -t 0.000000000 -s 22 -d -1 -p cbr -e 512 -c 2 -a 0 -i 40 -k AGT
h -t 0.000000000 -s 22 -d -1 -p cbr -e 512 -c 2 -a 0 -i 40 -k AGT
+ -t 0.000000000 -s 23 -d -1 -p cbr -e 512 -c 2 -a 0 -i 42 -k AGT 
- -t 0.000000000 -s 23 -d -1 -p cbr -e 512 -c 2 -a 0 -i 42 -k AGT
h -t 0.000000000 -s 23 -d -1 -p cbr -e 512 -c 2 -a 0 -i 42 -k AGT
+ -t 0.000000000 -s 24 -d -1 -p cbr -e 512 -c 2 -a 0 -i 44 -k AGT 
- -t 0.000000000 -s 24 -d -1 -p cbr -e 512 -c 2 -a 0 -i 44 -k AGT
h -t 0.000000000 -s 24 -d -1 -p cbr -e 512 -c 2 -a 0 -i 44 -k AGT
+ -t 0.000000000 -s 25 -d -1 -p cbr -e 512 -c 2 -a 0 -i 46 -k AGT 
- -t 0.000000000 -s 25 -d -1 -p cbr -e 512 -c 2 -a 0 -i 46 -k AGT
h -t 0.000000000 -s 25 -d -1 -p cbr -e 512 -c 2 -a 0 -i 46 -k AGT
+ -t 0.000000000 -s 26 -d -1 -p cbr -e 512 -c 2 -a 0 -i 48 -k AGT 
- -t 0.000000000 -s 26 -d -1 -p cbr -e 512 -c 2 -a 0 -i 48 -k AGT
h -t 0.000000000 -s 26 -d -1 -p cbr -e 512 -c 2 -a 0 -i 48 -k AGT
+ -t 0.000000000 -s 27 -d -1 -p cbr -e 512 -c 2 -a 0 -i 50 -k AGT 
- -t 0.000000000 -s 27 -d -1 -p cbr -e 512 -c 2 -a 0 -i 50 -k AGT
h -t 0.000000000 -s 27 -d -1 -p cbr -e 512 -c 2 -a 0 -i 50 -k AGT
+ -t 0.000000000 -s 28 -d -1 -p cbr -e 512 -c 2 -a 0 -i 52 -k AGT 
- -t 0.000000000 -s 28 -d -1 -p cbr -e 512 -c 2 -a 0 -i 52 -k AGT
h -t 0.000000000 -s 28 -d -1 -p cbr -e 512 -c 2 -a 0 -i 52 -k AGT
+ -t 0.000000000 -s 29 -d -1 -p cbr -e 512 -c 2 -a 0 -i 54 -k AGT 
- -t 0.000000000 -s 29 -d -1 -p cbr -e 512 -c 2 -a 0 -i 54 -k AGT
h -t 0.000000000 -s 29 -d -1 -p cbr -e 512 -c 2 -a 0 -i 54 -k AGT
+ -t 0.000000000 -s 30 -d -1 -p cbr -e 512 -c 2 -a 0 -i 56 -k AGT 
- -t 0.000000000 -s 30 -d -1 -p cbr -e 512 -c 2 -a 0 -i 56 -k AGT
h -t 0.000000000 -s 30 -d -1 -p cbr -e 512 -c 2 -a 0 -i 56 -k AGT
+ -t 0.000000000 -s 31 -d -1 -p cbr -e 512 -c 2 -a 0 -i 58 -k AGT 
- -t 0.000000000 -s 31 -d -1 -p cbr -e 512 -c 2 -a 0 -i 58 -k AGT
h -t 0.000000000 -s 31 -d -1 -p cbr -e 512 -c 2 -a 0 -i 58 -k AGT
+ -t 0.000000000 -s 32 -d -1 -p cbr -e 512 -c 2 -a 0 -i 60 -k AGT 
- -t 0.000000000 -s 32 -d -1 -p cbr -e 512 -c 2 -a 0 -i 60 -k AGT
h -t 0.000000000 -s 32 -d -1 -p cbr -e 512 -c 2 -a 0 -i 60 -k AGT
+ -t 0.000000000 -s 33 -d -1 -p cbr -e 512 -c 2 -a 0 -i 62 -k AGT 
- -t 0.000000000 -s 33 -d -1 -p cbr -e 512 -c 2 -a 0 -i 62 -k AGT
h -t 0.000000000 -s 33 -d -1 -p cbr -e 512 -c 2 -a 0 -i 62 -k AGT
+ -t 0.000000000 -s 34 -d -1 -p cbr -e 512 -c 2 -a 0 -i 64 -k AGT 
- -t 0.000000000 -s 34 -d -1 -p cbr -e 512 -c 2 -a 0 -i 64 -k AGT
h -t 0.000000000 -s 34 -d -1 -p cbr -e 512 -c 2 -a 0 -i 64 -k AGT
+ -t 0.000000000 -s 35 -d -1 -p cbr -e 512 -c 2 -a 0 -i 66 -k AGT 
- -t 0.000000000 -s 35 -d -1 -p cbr -e 512 -c 2 -a 0 -i 66 -k AGT
h -t 0.000000000 -s 35 -d -1 -p cbr -e 512 -c 2 -a 0 -i 66 -k AGT
+ -t 0.000000000 -s 36 -d -1 -p cbr -e 512 -c 2 -a 0 -i 68 -k AGT 
- -t 0.000000000 -s 36 -d -1 -p cbr -e 512 -c 2 -a 0 -i 68 -k AGT
h -t 0.000000000 -s 36 -d -1 -p cbr -e 512 -c 2 -a 0 -i 68 -k AGT
+ -t 0.000000000 -s 37 -d -1 -p cbr -e 512 -c 2 -a 0 -i 70 -k AGT 
- -t 0.000000000 -s 37 -d -1 -p cbr -e 512 -c 2 -a 0 -i 70 -k AGT
h -t 0.000000000 -s 37 -d -1 -p cbr -e 512 -c 2 -a 0 -i 70 -k AGT
+ -t 0.000000000 -s 38 -d -1 -p cbr -e 512 -c 2 -a 0 -i 72 -k AGT 
- -t 0.000000000 -s 38 -d -1 -p cbr -e 512 -c 2 -a 0 -i 72 -k AGT
h -t 0.000000000 -s 38 -d -1 -p cbr -e 512 -c 2 -a 0 -i 72 -k AGT
+ -t 0.000000000 -s 39 -d -1 -p cbr -e 512 -c 2 -a 0 -i 74 -k AGT 
- -t 0.000000000 -s 39 -d -1 -p cbr -e 512 -c 2 -a 0 -i 74 -k AGT
h -t 0.000000000 -s 39 -d -1 -p cbr -e 512 -c 2 -a 0 -i 74 -k AGT
+ -t 0.000108083 -s 6 -d -1 -p DSR -e 32 -c 2 -a 0 -i 9 -k RTR 
- -t 0.000108083 -s 6 -d -1 -p DSR -e 32 -c 2 -a 0 -i 9 -k RTR
h -t 0.000108083 -s 6 -d -1 -p DSR -e 32 -c 2 -a 0 -i 9 -k RTR
+ -t 0.000275575 -s 18 -d -1 -p DSR -e 32 -c 2 -a 0 -i 33 -k RTR 
- -t 0.000275575 -s 18 -d -1 -p DSR -e 32 -c 2 -a 0 -i 33 -k RTR
h -t 0.000275575 -s 18 -d -1 -p DSR -e 32 -c 2 -a 0 -i 33 -k RTR
+ -t 0.000501334 -s 30 -d -1 -p DSR -e 32 -c 2 -a 0 -i 57 -k RTR 
- -t 0.000501334 -s 30 -d -1 -p DSR -e 32 -c 2 -a 0 -i 57 -k RTR
h -t 0.000501334 -s 30 -d -1 -p DSR -e 32 -c 2 -a 0 -i 57 -k RTR
+ -t 0.000584026 -s 5 -d -1 -p DSR -e 32 -c 2 -a 0 -i 7 -k RTR 
- -t 0.000584026 -s 5 -d -1 -p DSR -e 32 -c 2 -a 0 -i 7 -k RTR
h -t 0.000584026 -s 5 -d -1 -p DSR -e 32 -c 2 -a 0 -i 7 -k RTR
+ -t 0.000882001 -s 35 -d -1 -p DSR -e 32 -c 2 -a 0 -i 67 -k RTR 
- -t 0.000882001 -s 35 -d -1 -p DSR -e 32 -c 2 -a 0 -i 67 -k RTR
h -t 0.000882001 -s 35 -d -1 -p DSR -e 32 -c 2 -a 0 -i 67 -k RTR
+ -t 0.000913569 -s 28 -d -1 -p DSR -e 32 -c 2 -a 0 -i 53 -k RTR 
- -t 0.000913569 -s 28 -d -1 -p DSR -e 32 -c 2 -a 0 -i 53 -k RTR
h -t 0.000913569 -s 28 -d -1 -p DSR -e 32 -c 2 -a 0 -i 53 -k RTR
+ -t 0.001120313 -s 4 -d -1 -p DSR -e 32 -c 2 -a 0 -i 5 -k RTR 
- -t 0.001120313 -s 4 -d -1 -p DSR -e 32 -c 2 -a 0 -i 5 -k RTR
h -t 0.001120313 -s 4 -d -1 -p DSR -e 32 -c 2 -a 0 -i 5 -k RTR
+ -t 0.001231035 -s 9 -d -1 -p DSR -e 32 -c 2 -a 0 -i 15 -k RTR 
- -t 0.001231035 -s 9 -d -1 -p DSR -e 32 -c 2 -a 0 -i 15 -k RTR
h -t 0.001231035 -s 9 -d -1 -p DSR -e 32 -c 2 -a 0 -i 15 -k RTR
+ -t 0.001787278 -s 26 -d -1 -p DSR -e 32 -c 2 -a 0 -i 49 -k RTR 
- -t 0.001787278 -s 26 -d -1 -p DSR -e 32 -c 2 -a 0 -i 49 -k RTR
h -t 0.001787278 -s 26 -d -1 -p DSR -e 32 -c 2 -a 0 -i 49 -k RTR
+ -t 0.001862143 -s 20 -d -1 -p DSR -e 32 -c 2 -a 0 -i 37 -k RTR 
- -t 0.001862143 -s 20 -d -1 -p DSR -e 32 -c 2 -a 0 -i 37 -k RTR
h -t 0.001862143 -s 20 -d -1 -p DSR -e 32 -c 2 -a 0 -i 37 -k RTR
+ -t 0.001880143 -s 1 -d 18 -p DSR -e 44 -c 2 -a 0 -i 77 -k RTR 
- -t 0.001880143 -s 1 -d 18 -p DSR -e 44 -c 2 -a 0 -i 77 -k RTR
h -t 0.001880143 -s 1 -d 18 -p DSR -e 44 -c 2 -a 0 -i 77 -k RTR
+ -t 0.002067340 -s 24 -d -1 -p DSR -e 32 -c 2 -a 0 -i 45 -k RTR 
- -t 0.002067340 -s 24 -d -1 -p DSR -e 32 -c 2 -a 0 -i 45 -k RTR
h -t 0.002067340 -s 24 -d -1 -p DSR -e 32 -c 2 -a 0 -i 45 -k RTR
+ -t 0.002569937 -s 11 -d -1 -p DSR -e 32 -c 2 -a 0 -i 19 -k RTR 
- -t 0.002569937 -s 11 -d -1 -p DSR -e 32 -c 2 -a 0 -i 19 -k RTR
h -t 0.002569937 -s 11 -d -1 -p DSR -e 32 -c 2 -a 0 -i 19 -k RTR
+ -t 0.002618241 -s 15 -d -1 -p DSR -e 32 -c 2 -a 0 -i 27 -k RTR 
- -t 0.002618241 -s 15 -d -1 -p DSR -e 32 -c 2 -a 0 -i 27 -k RTR
h -t 0.002618241 -s 15 -d -1 -p DSR -e 32 -c 2 -a 0 -i 27 -k RTR
+ -t 0.003273170 -s 19 -d -1 -p DSR -e 32 -c 2 -a 0 -i 35 -k RTR 
- -t 0.003273170 -s 19 -d -1 -p DSR -e 32 -c 2 -a 0 -i 35 -k RTR
h -t 0.003273170 -s 19 -d -1 -p DSR -e 32 -c 2 -a 0 -i 35 -k RTR
+ -t 0.003356628 -s 8 -d -1 -p DSR -e 32 -c 2 -a 0 -i 13 -k RTR 
- -t 0.003356628 -s 8 -d -1 -p DSR -e 32 -c 2 -a 0 -i 13 -k RTR
h -t 0.003356628 -s 8 -d -1 -p DSR -e 32 -c 2 -a 0 -i 13 -k RTR
+ -t 0.004212201 -s 34 -d -1 -p DSR -e 32 -c 2 -a 0 -i 65 -k RTR 
- -t 0.004212201 -s 34 -d -1 -p DSR -e 32 -c 2 -a 0 -i 65 -k RTR
h -t 0.004212201 -s 34 -d -1 -p DSR -e 32 -c 2 -a 0 -i 65 -k RTR
+ -t 0.004256873 -s 17 -d -1 -p DSR -e 32 -c 2 -a 0 -i 31 -k RTR 
- -t 0.004256873 -s 17 -d -1 -p DSR -e 32 -c 2 -a 0 -i 31 -k RTR
h -t 0.004256873 -s 17 -d -1 -p DSR -e 32 -c 2 -a 0 -i 31 -k RTR
+ -t 0.004917217 -s 29 -d -1 -p DSR -e 32 -c 2 -a 0 -i 55 -k RTR 
- -t 0.004917217 -s 29 -d -1 -p DSR -e 32 -c 2 -a 0 -i 55 -k RTR
h -t 0.004917217 -s 29 -d -1 -p DSR -e 32 -c 2 -a 0 -i 55 -k RTR
+ -t 0.005328986 -s 32 -d -1 -p DSR -e 32 -c 2 -a 0 -i 61 -k RTR 
- -t 0.005328986 -s 32 -d -1 -p DSR -e 32 -c 2 -a 0 -i 61 -k RTR
h -t 0.005328986 -s 32 -d -1 -p DSR -e 32 -c 2 -a 0 -i 61 -k RTR
+ -t 0.005448220 -s 13 -d -1 -p DSR -e 32 -c 2 -a 0 -i 23 -k RTR 
- -t 0.005448220 -s 13 -d -1 -p DSR -e 32 -c 2 -a 0 -i 23 -k RTR
h -t 0.005448220 -s 13 -d -1 -p DSR -e 32 -c 2 -a 0 -i 23 -k RTR
+ -t 0.005548397 -s 16 -d -1 -p DSR -e 32 -c 2 -a 0 -i 29 -k RTR 
- -t 0.005548397 -s 16 -d -1 -p DSR -e 32 -c 2 -a 0 -i 29 -k RTR
h -t 0.005548397 -s 16 -d -1 -p DSR -e 32 -c 2 -a 0 -i 29 -k RTR
+ -t 0.005758499 -s 1 -d 5 -p DSR -e 44 -c 2 -a 0 -i 78 -k RTR 
- -t 0.005758499 -s 1 -d 5 -p DSR -e 44 -c 2 -a 0 -i 78 -k RTR
h -t 0.005758499 -s 1 -d 5 -p DSR -e 44 -c 2 -a 0 -i 78 -k RTR
+ -t 0.005950274 -s 7 -d -1 -p DSR -e 32 -c 2 -a 0 -i 11 -k RTR 
- -t 0.005950274 -s 7 -d -1 -p DSR -e 32 -c 2 -a 0 -i 11 -k RTR
h -t 0.005950274 -s 7 -d -1 -p DSR -e 32 -c 2 -a 0 -i 11 -k RTR
+ -t 0.006686239 -s 10 -d -1 -p DSR -e 32 -c 2 -a 0 -i 17 -k RTR 
- -t 0.006686239 -s 10 -d -1 -p DSR -e 32 -c 2 -a 0 -i 17 -k RTR
h -t 0.006686239 -s 10 -d -1 -p DSR -e 32 -c 2 -a 0 -i 17 -k RTR
+ -t 0.006949373 -s 25 -d -1 -p DSR -e 32 -c 2 -a 0 -i 47 -k RTR 
- -t 0.006949373 -s 25 -d -1 -p DSR -e 32 -c 2 -a 0 -i 47 -k RTR
h -t 0.006949373 -s 25 -d -1 -p DSR -e 32 -c 2 -a 0 -i 47 -k RTR
+ -t 0.006986732 -s 12 -d -1 -p DSR -e 32 -c 2 -a 0 -i 21 -k RTR 
- -t 0.006986732 -s 12 -d -1 -p DSR -e 32 -c 2 -a 0 -i 21 -k RTR
h -t 0.006986732 -s 12 -d -1 -p DSR -e 32 -c 2 -a 0 -i 21 -k RTR
+ -t 0.007280418 -s 38 -d -1 -p DSR -e 32 -c 2 -a 0 -i 73 -k RTR 
- -t 0.007280418 -s 38 -d -1 -p DSR -e 32 -c 2 -a 0 -i 73 -k RTR
h -t 0.007280418 -s 38 -d -1 -p DSR -e 32 -c 2 -a 0 -i 73 -k RTR
+ -t 0.007350911 -s 33 -d -1 -p DSR -e 32 -c 2 -a 0 -i 63 -k RTR 
- -t 0.007350911 -s 33 -d -1 -p DSR -e 32 -c 2 -a 0 -i 63 -k RTR
h -t 0.007350911 -s 33 -d -1 -p DSR -e 32 -c 2 -a 0 -i 63 -k RTR
+ -t 0.007683653 -s 1 -d 6 -p DSR -e 44 -c 2 -a 0 -i 76 -k RTR 
- -t 0.007683653 -s 1 -d 6 -p DSR -e 44 -c 2 -a 0 -i 76 -k RTR
h -t 0.007683653 -s 1 -d 6 -p DSR -e 44 -c 2 -a 0 -i 76 -k RTR
+ -t 0.007726957 -s 23 -d -1 -p DSR -e 32 -c 2 -a 0 -i 43 -k RTR 
- -t 0.007726957 -s 23 -d -1 -p DSR -e 32 -c 2 -a 0 -i 43 -k RTR
h -t 0.007726957 -s 23 -d -1 -p DSR -e 32 -c 2 -a 0 -i 43 -k RTR
+ -t 0.007849871 -s 21 -d -1 -p DSR -e 32 -c 2 -a 0 -i 39 -k RTR 
- -t 0.007849871 -s 21 -d -1 -p DSR -e 32 -c 2 -a 0 -i 39 -k RTR
h -t 0.007849871 -s 21 -d -1 -p DSR -e 32 -c 2 -a 0 -i 39 -k RTR
+ -t 0.008144002 -s 36 -d -1 -p DSR -e 32 -c 2 -a 0 -i 69 -k RTR 
- -t 0.008144002 -s 36 -d -1 -p DSR -e 32 -c 2 -a 0 -i 69 -k RTR
h -t 0.008144002 -s 36 -d -1 -p DSR -e 32 -c 2 -a 0 -i 69 -k RTR
+ -t 0.008651055 -s 31 -d -1 -p DSR -e 32 -c 2 -a 0 -i 59 -k RTR 
- -t 0.008651055 -s 31 -d -1 -p DSR -e 32 -c 2 -a 0 -i 59 -k RTR
h -t 0.008651055 -s 31 -d -1 -p DSR -e 32 -c 2 -a 0 -i 59 -k RTR
+ -t 0.008746463 -s 39 -d -1 -p DSR -e 32 -c 2 -a 0 -i 75 -k RTR 
- -t 0.008746463 -s 39 -d -1 -p DSR -e 32 -c 2 -a 0 -i 75 -k RTR
h -t 0.008746463 -s 39 -d -1 -p DSR -e 32 -c 2 -a 0 -i 75 -k RTR
+ -t 0.008766557 -s 14 -d -1 -p DSR -e 32 -c 2 -a 0 -i 25 -k RTR 
- -t 0.008766557 -s 14 -d -1 -p DSR -e 32 -c 2 -a 0 -i 25 -k RTR
h -t 0.008766557 -s 14 -d -1 -p DSR -e 32 -c 2 -a 0 -i 25 -k RTR
+ -t 0.008913478 -s 3 -d -1 -p DSR -e 32 -c 2 -a 0 -i 3 -k RTR 
- -t 0.008913478 -s 3 -d -1 -p DSR -e 32 -c 2 -a 0 -i 3 -k RTR
h -t 0.008913478 -s 3 -d -1 -p DSR -e 32 -c 2 -a 0 -i 3 -k RTR
+ -t 0.009028476 -s 37 -d -1 -p DSR -e 32 -c 2 -a 0 -i 71 -k RTR 
- -t 0.009028476 -s 37 -d -1 -p DSR -e 32 -c 2 -a 0 -i 71 -k RTR
h -t 0.009028476 -s 37 -d -1 -p DSR -e 32 -c 2 -a 0 -i 71 -k RTR
+ -t 0.009462650 -s 2 -d -1 -p DSR -e 32 -c 2 -a 0 -i 1 -k RTR 
- -t 0.009462650 -s 2 -d -1 -p DSR -e 32 -c 2 -a 0 -i 1 -k RTR
h -t 0.009462650 -s 2 -d -1 -p DSR -e 32 -c 2 -a 0 -i 1 -k RTR
+ -t 0.009468162 -s 22 -d -1 -p DSR -e 32 -c 2 -a 0 -i 41 -k RTR 
- -t 0.009468162 -s 22 -d -1 -p DSR -e 32 -c 2 -a 0 -i 41 -k RTR
h -t 0.009468162 -s 22 -d -1 -p DSR -e 32 -c 2 -a 0 -i 41 -k RTR
+ -t 0.009760067 -s 27 -d -1 -p DSR -e 32 -c 2 -a 0 -i 51 -k RTR 
- -t 0.009760067 -s 27 -d -1 -p DSR -e 32 -c 2 -a 0 -i 51 -k RTR
h -t 0.009760067 -s 27 -d -1 -p DSR -e 32 -c 2 -a 0 -i 51 -k RTR
+ -t 0.012325747 -s 1 -d 8 -p DSR -e 44 -c 2 -a 0 -i 79 -k RTR 
- -t 0.012325747 -s 1 -d 8 -p DSR -e 44 -c 2 -a 0 -i 79 -k RTR
h -t 0.012325747 -s 1 -d 8 -p DSR -e 44 -c 2 -a 0 -i 79 -k RTR
+ -t 0.013763325 -s 1 -d 2 -p DSR -e 44 -c 2 -a 0 -i 80 -k RTR 
- -t 0.013763325 -s 1 -d 2 -p DSR -e 44 -c 2 -a 0 -i 80 -k RTR
h -t 0.013763325 -s 1 -d 2 -p DSR -e 44 -c 2 -a 0 -i 80 -k RTR
+ -t 0.016184942 -s 1 -d 29 -p DSR -e 44 -c 2 -a 0 -i 84 -k RTR 
- -t 0.016184942 -s 1 -d 29 -p DSR -e 44 -c 2 -a 0 -i 84 -k RTR
h -t 0.016184942 -s 1 -d 29 -p DSR -e 44 -c 2 -a 0 -i 84 -k RTR
+ -t 0.016362280 -s 1 -d 38 -p DSR -e 44 -c 2 -a 0 -i 82 -k RTR 
- -t 0.016362280 -s 1 -d 38 -p DSR -e 44 -c 2 -a 0 -i 82 -k RTR
h -t 0.016362280 -s 1 -d 38 -p DSR -e 44 -c 2 -a 0 -i 82 -k RTR
+ -t 0.017524531 -s 1 -d 16 -p DSR -e 44 -c 2 -a 0 -i 81 -k RTR 
- -t 0.017524531 -s 1 -d 16 -p DSR -e 44 -c 2 -a 0 -i 81 -k RTR
h -t 0.017524531 -s 1 -d 16 -p DSR -e 44 -c 2 -a 0 -i 81 -k RTR
+ -t 0.020859600 -s 1 -d 19 -p DSR -e 44 -c 2 -a 0 -i 85 -k RTR 
- -t 0.020859600 -s 1 -d 19 -p DSR -e 44 -c 2 -a 0 -i 85 -k RTR
h -t 0.020859600 -s 1 -d 19 -p DSR -e 44 -c 2 -a 0 -i 85 -k RTR
+ -t 0.022217804 -s 1 -d 14 -p DSR -e 44 -c 2 -a 0 -i 86 -k RTR 
- -t 0.022217804 -s 1 -d 14 -p DSR -e 44 -c 2 -a 0 -i 86 -k RTR
h -t 0.022217804 -s 1 -d 14 -p DSR -e 44 -c 2 -a 0 -i 86 -k RTR
+ -t 0.023433782 -s 1 -d 28 -p DSR -e 44 -c 2 -a 0 -i 83 -k RTR 
- -t 0.023433782 -s 1 -d 28 -p DSR -e 44 -c 2 -a 0 -i 83 -k RTR
h -t 0.023433782 -s 1 -d 28 -p DSR -e 44 -c 2 -a 0 -i 83 -k RTR
+ -t 0.023776838 -s 1 -d 13 -p DSR -e 44 -c 2 -a 0 -i 87 -k RTR 
- -t 0.023776838 -s 1 -d 13 -p DSR -e 44 -c 2 -a 0 -i 87 -k RTR
h -t 0.023776838 -s 1 -d 13 -p DSR -e 44 -c 2 -a 0 -i 87 -k RTR
+ -t 0.027635424 -s 1 -d 39 -p DSR -e 44 -c 2 -a 0 -i 88 -k RTR 
- -t 0.027635424 -s 1 -d 39 -p DSR -e 44 -c 2 -a 0 -i 88 -k RTR
h -t 0.027635424 -s 1 -d 39 -p DSR -e 44 -c 2 -a 0 -i 88 -k RTR
+ -t 0.028651704 -s 1 -d 3 -p DSR -e 44 -c 2 -a 0 -i 90 -k RTR 
- -t 0.028651704 -s 1 -d 3 -p DSR -e 44 -c 2 -a 0 -i 90 -k RTR
h -t 0.028651704 -s 1 -d 3 -p DSR -e 44 -c 2 -a 0 -i 90 -k RTR
+ -t 0.029206983 -s 1 -d 10 -p DSR -e 44 -c 2 -a 0 -i 91 -k RTR 
- -t 0.029206983 -s 1 -d 10 -p DSR -e 44 -c 2 -a 0 -i 91 -k RTR
h -t 0.029206983 -s 1 -d 10 -p DSR -e 44 -c 2 -a 0 -i 91 -k RTR
+ -t 0.031213479 -s 1 -d 17 -p DSR -e 44 -c 2 -a 0 -i 89 -k RTR 
- -t 0.031213479 -s 1 -d 17 -p DSR -e 44 -c 2 -a 0 -i 89 -k RTR
h -t 0.031213479 -s 1 -d 17 -p DSR -e 44 -c 2 -a 0 -i 89 -k RTR
+ -t 0.031904332 -s 18 -d 1 -p cbr -e 548 -c 2 -a 0 -i 32 -k RTR 
- -t 0.031904332 -s 18 -d 1 -p cbr -e 548 -c 2 -a 0 -i 32 -k RTR
h -t 0.031904332 -s 18 -d 1 -p cbr -e 548 -c 2 -a 0 -i 32 -k RTR
+ -t 0.032643680 -s 3 -d 1 -p cbr -e 548 -c 2 -a 0 -i 2 -k RTR 
- -t 0.032643680 -s 3 -d 1 -p cbr -e 548 -c 2 -a 0 -i 2 -k RTR
h -t 0.032643680 -s 3 -d 1 -p cbr -e 548 -c 2 -a 0 -i 2 -k RTR
+ -t 0.032824166 -s 19 -d 1 -p cbr -e 548 -c 2 -a 0 -i 34 -k RTR 
- -t 0.032824166 -s 19 -d 1 -p cbr -e 548 -c 2 -a 0 -i 34 -k RTR
h -t 0.032824166 -s 19 -d 1 -p cbr -e 548 -c 2 -a 0 -i 34 -k RTR
+ -t 0.033275954 -s 36 -d 1 -p cbr -e 548 -c 2 -a 0 -i 68 -k RTR 
- -t 0.033275954 -s 36 -d 1 -p cbr -e 548 -c 2 -a 0 -i 68 -k RTR
h -t 0.033275954 -s 36 -d 1 -p cbr -e 548 -c 2 -a 0 -i 68 -k RTR
+ -t 0.033414247 -s 15 -d 1 -p cbr -e 548 -c 2 -a 0 -i 26 -k RTR 
- -t 0.033414247 -s 15 -d 1 -p cbr -e 548 -c 2 -a 0 -i 26 -k RTR
h -t 0.033414247 -s 15 -d 1 -p cbr -e 548 -c 2 -a 0 -i 26 -k RTR
+ -t 0.034924362 -s 12 -d 1 -p cbr -e 548 -c 2 -a 0 -i 20 -k RTR 
- -t 0.034924362 -s 12 -d 1 -p cbr -e 548 -c 2 -a 0 -i 20 -k RTR
h -t 0.034924362 -s 12 -d 1 -p cbr -e 548 -c 2 -a 0 -i 20 -k RTR
+ -t 0.035620957 -s 38 -d 1 -p cbr -e 548 -c 2 -a 0 -i 72 -k RTR 
- -t 0.035620957 -s 38 -d 1 -p cbr -e 548 -c 2 -a 0 -i 72 -k RTR
h -t 0.035620957 -s 38 -d 1 -p cbr -e 548 -c 2 -a 0 -i 72 -k RTR
+ -t 0.036514784 -s 29 -d 1 -p cbr -e 548 -c 2 -a 0 -i 54 -k RTR 
- -t 0.036514784 -s 29 -d 1 -p cbr -e 548 -c 2 -a 0 -i 54 -k RTR
h -t 0.036514784 -s 29 -d 1 -p cbr -e 548 -c 2 -a 0 -i 54 -k RTR
+ -t 0.037038053 -s 8 -d 1 -p cbr -e 548 -c 2 -a 0 -i 12 -k RTR 
- -t 0.037038053 -s 8 -d 1 -p cbr -e 548 -c 2 -a 0 -i 12 -k RTR
h -t 0.037038053 -s 8 -d 1 -p cbr -e 548 -c 2 -a 0 -i 12 -k RTR
+ -t 0.037236769 -s 30 -d 1 -p cbr -e 548 -c 2 -a 0 -i 56 -k RTR 
- -t 0.037236769 -s 30 -d 1 -p cbr -e 548 -c 2 -a 0 -i 56 -k RTR
h -t 0.037236769 -s 30 -d 1 -p cbr -e 548 -c 2 -a 0 -i 56 -k RTR
+ -t 0.037742638 -s 22 -d 1 -p cbr -e 548 -c 2 -a 0 -i 40 -k RTR 
- -t 0.037742638 -s 22 -d 1 -p cbr -e 548 -c 2 -a 0 -i 40 -k RTR
h -t 0.037742638 -s 22 -d 1 -p cbr -e 548 -c 2 -a 0 -i 40 -k RTR
r -t 0.037792599 -s 1 -d 1 -p cbr -e 512 -c 2 -a 0 -i 32 -k AGT
+ -t 0.038367357 -s 13 -d -1 -p DSR -e 32 -c 2 -a 0 -i 93 -k RTR 
- -t 0.038367357 -s 13 -d -1 -p DSR -e 32 -c 2 -a 0 -i 93 -k RTR
h -t 0.038367357 -s 13 -d -1 -p DSR -e 32 -c 2 -a 0 -i 93 -k RTR
+ -t 0.039272372 -s 10 -d 1 -p cbr -e 548 -c 2 -a 0 -i 16 -k RTR 
- -t 0.039272372 -s 10 -d 1 -p cbr -e 548 -c 2 -a 0 -i 16 -k RTR
h -t 0.039272372 -s 10 -d 1 -p cbr -e 548 -c 2 -a 0 -i 16 -k RTR
+ -t 0.039388853 -s 6 -d 1 -p cbr -e 548 -c 2 -a 0 -i 8 -k RTR 
- -t 0.039388853 -s 6 -d 1 -p cbr -e 548 -c 2 -a 0 -i 8 -k RTR
h -t 0.039388853 -s 6 -d 1 -p cbr -e 548 -c 2 -a 0 -i 8 -k RTR
+ -t 0.039964624 -s 2 -d -1 -p DSR -e 32 -c 2 -a 0 -i 92 -k RTR 
- -t 0.039964624 -s 2 -d -1 -p DSR -e 32 -c 2 -a 0 -i 92 -k RTR
h -t 0.039964624 -s 2 -d -1 -p DSR -e 32 -c 2 -a 0 -i 92 -k RTR
+ -t 0.040462231 -s 21 -d 1 -p cbr -e 548 -c 2 -a 0 -i 38 -k RTR 
- -t 0.040462231 -s 21 -d 1 -p cbr -e 548 -c 2 -a 0 -i 38 -k RTR
h -t 0.040462231 -s 21 -d 1 -p cbr -e 548 -c 2 -a 0 -i 38 -k RTR
+ -t 0.040960000 -s 2 -d -1 -p cbr -e 512 -c 2 -a 0 -i 94 -k AGT 
- -t 0.040960000 -s 2 -d -1 -p cbr -e 512 -c 2 -a 0 -i 94 -k AGT
h -t 0.040960000 -s 2 -d -1 -p cbr -e 512 -c 2 -a 0 -i 94 -k AGT
+ -t 0.040960000 -s 3 -d -1 -p cbr -e 512 -c 2 -a 0 -i 95 -k AGT 
- -t 0.040960000 -s 3 -d -1 -p cbr -e 512 -c 2 -a 0 -i 95 -k AGT
h -t 0.040960000 -s 3 -d -1 -p cbr -e 512 -c 2 -a 0 -i 95 -k AGT
+ -t 0.040960000 -s 4 -d -1 -p cbr -e 512 -c 2 -a 0 -i 96 -k AGT 
- -t 0.040960000 -s 4 -d -1 -p cbr -e 512 -c 2 -a 0 -i 96 -k AGT
h -t 0.040960000 -s 4 -d -1 -p cbr -e 512 -c 2 -a 0 -i 96 -k AGT
+ -t 0.040960000 -s 5 -d -1 -p cbr -e 512 -c 2 -a 0 -i 97 -k AGT 
- -t 0.040960000 -s 5 -d -1 -p cbr -e 512 -c 2 -a 0 -i 97 -k AGT
h -t 0.040960000 -s 5 -d -1 -p cbr -e 512 -c 2 -a 0 -i 97 -k AGT
+ -t 0.040960000 -s 6 -d -1 -p cbr -e 512 -c 2 -a 0 -i 98 -k AGT 
- -t 0.040960000 -s 6 -d -1 -p cbr -e 512 -c 2 -a 0 -i 98 -k AGT
h -t 0.040960000 -s 6 -d -1 -p cbr -e 512 -c 2 -a 0 -i 98 -k AGT
+ -t 0.040960000 -s 7 -d -1 -p cbr -e 512 -c 2 -a 0 -i 99 -k AGT 
- -t 0.040960000 -s 7 -d -1 -p cbr -e 512 -c 2 -a 0 -i 99 -k AGT
h -t 0.040960000 -s 7 -d -1 -p cbr -e 512 -c 2 -a 0 -i 99 -k AGT
+ -t 0.040960000 -s 8 -d -1 -p cbr -e 512 -c 2 -a 0 -i 100 -k AGT 
- -t 0.040960000 -s 8 -d -1 -p cbr -e 512 -c 2 -a 0 -i 100 -k AGT
h -t 0.040960000 -s 8 -d -1 -p cbr -e 512 -c 2 -a 0 -i 100 -k AGT
+ -t 0.040960000 -s 9 -d -1 -p cbr -e 512 -c 2 -a 0 -i 101 -k AGT 
- -t 0.040960000 -s 9 -d -1 -p cbr -e 512 -c 2 -a 0 -i 101 -k AGT
h -t 0.040960000 -s 9 -d -1 -p cbr -e 512 -c 2 -a 0 -i 101 -k AGT
+ -t 0.040960000 -s 10 -d -1 -p cbr -e 512 -c 2 -a 0 -i 102 -k AGT 
- -t 0.040960000 -s 10 -d -1 -p cbr -e 512 -c 2 -a 0 -i 102 -k AGT
h -t 0.040960000 -s 10 -d -1 -p cbr -e 512 -c 2 -a 0 -i 102 -k AGT
+ -t 0.040960000 -s 11 -d -1 -p cbr -e 512 -c 2 -a 0 -i 103 -k AGT 
- -t 0.040960000 -s 11 -d -1 -p cbr -e 512 -c 2 -a 0 -i 103 -k AGT
h -t 0.040960000 -s 11 -d -1 -p cbr -e 512 -c 2 -a 0 -i 103 -k AGT
+ -t 0.040960000 -s 12 -d -1 -p cbr -e 512 -c 2 -a 0 -i 104 -k AGT 
- -t 0.040960000 -s 12 -d -1 -p cbr -e 512 -c 2 -a 0 -i 104 -k AGT
h -t 0.040960000 -s 12 -d -1 -p cbr -e 512 -c 2 -a 0 -i 104 -k AGT
+ -t 0.040960000 -s 13 -d -1 -p cbr -e 512 -c 2 -a 0 -i 105 -k AGT 
- -t 0.040960000 -s 13 -d -1 -p cbr -e 512 -c 2 -a 0 -i 105 -k AGT
h -t 0.040960000 -s 13 -d -1 -p cbr -e 512 -c 2 -a 0 -i 105 -k AGT
+ -t 0.040960000 -s 14 -d -1 -p cbr -e 512 -c 2 -a 0 -i 106 -k AGT 
- -t 0.040960000 -s 14 -d -1 -p cbr -e 512 -c 2 -a 0 -i 106 -k AGT
h -t 0.040960000 -s 14 -d -1 -p cbr -e 512 -c 2 -a 0 -i 106 -k AGT
+ -t 0.040960000 -s 15 -d -1 -p cbr -e 512 -c 2 -a 0 -i 107 -k AGT 
- -t 0.040960000 -s 15 -d -1 -p cbr -e 512 -c 2 -a 0 -i 107 -k AGT
h -t 0.040960000 -s 15 -d -1 -p cbr -e 512 -c 2 -a 0 -i 107 -k AGT
+ -t 0.040960000 -s 16 -d -1 -p cbr -e 512 -c 2 -a 0 -i 108 -k AGT 
- -t 0.040960000 -s 16 -d -1 -p cbr -e 512 -c 2 -a 0 -i 108 -k AGT
h -t 0.040960000 -s 16 -d -1 -p cbr -e 512 -c 2 -a 0 -i 108 -k AGT
+ -t 0.040960000 -s 17 -d -1 -p cbr -e 512 -c 2 -a 0 -i 109 -k AGT 
- -t 0.040960000 -s 17 -d -1 -p cbr -e 512 -c 2 -a 0 -i 109 -k AGT
h -t 0.040960000 -s 17 -d -1 -p cbr -e 512 -c 2 -a 0 -i 109 -k AGT
+ -t 0.040960000 -s 18 -d -1 -p cbr -e 512 -c 2 -a 0 -i 110 -k AGT 
- -t 0.040960000 -s 18 -d -1 -p cbr -e 512 -c 2 -a 0 -i 110 -k AGT
h -t 0.040960000 -s 18 -d -1 -p cbr -e 512 -c 2 -a 0 -i 110 -k AGT
+ -t 0.040960000 -s 19 -d -1 -p cbr -e 512 -c 2 -a 0 -i 111 -k AGT 
- -t 0.040960000 -s 19 -d -1 -p cbr -e 512 -c 2 -a 0 -i 111 -k AGT
h -t 0.040960000 -s 19 -d -1 -p cbr -e 512 -c 2 -a 0 -i 111 -k AGT
+ -t 0.040960000 -s 20 -d -1 -p cbr -e 512 -c 2 -a 0 -i 112 -k AGT 
- -t 0.040960000 -s 20 -d -1 -p cbr -e 512 -c 2 -a 0 -i 112 -k AGT
h -t 0.040960000 -s 20 -d -1 -p cbr -e 512 -c 2 -a 0 -i 112 -k AGT
+ -t 0.040960000 -s 21 -d -1 -p cbr -e 512 -c 2 -a 0 -i 113 -k AGT 
- -t 0.040960000 -s 21 -d -1 -p cbr -e 512 -c 2 -a 0 -i 113 -k AGT
h -t 0.040960000 -s 21 -d -1 -p cbr -e 512 -c 2 -a 0 -i 113 -k AGT
+ -t 0.040960000 -s 22 -d -1 -p cbr -e 512 -c 2 -a 0 -i 114 -k AGT 
- -t 0.040960000 -s 22 -d -1 -p cbr -e 512 -c 2 -a 0 -i 114 -k AGT
h -t 0.040960000 -s 22 -d -1 -p cbr -e 512 -c 2 -a 0 -i 114 -k AGT
+ -t 0.040960000 -s 23 -d -1 -p cbr -e 512 -c 2 -a 0 -i 115 -k AGT 
- -t 0.040960000 -s 23 -d -1 -p cbr -e 512 -c 2 -a 0 -i 115 -k AGT
h -t 0.040960000 -s 23 -d -1 -p cbr -e 512 -c 2 -a 0 -i 115 -k AGT
+ -t 0.040960000 -s 24 -d -1 -p cbr -e 512 -c 2 -a 0 -i 116 -k AGT 
- -t 0.040960000 -s 24 -d -1 -p cbr -e 512 -c 2 -a 0 -i 116 -k AGT
h -t 0.040960000 -s 24 -d -1 -p cbr -e 512 -c 2 -a 0 -i 116 -k AGT
+ -t 0.040960000 -s 25 -d -1 -p cbr -e 512 -c 2 -a 0 -i 117 -k AGT 
- -t 0.040960000 -s 25 -d -1 -p cbr -e 512 -c 2 -a 0 -i 117 -k AGT
h -t 0.040960000 -s 25 -d -1 -p cbr -e 512 -c 2 -a 0 -i 117 -k AGT
+ -t 0.040960000 -s 26 -d -1 -p cbr -e 512 -c 2 -a 0 -i 118 -k AGT 
- -t 0.040960000 -s 26 -d -1 -p cbr -e 512 -c 2 -a 0 -i 118 -k AGT
h -t 0.040960000 -s 26 -d -1 -p cbr -e 512 -c 2 -a 0 -i 118 -k AGT
+ -t 0.040960000 -s 27 -d -1 -p cbr -e 512 -c 2 -a 0 -i 119 -k AGT 
- -t 0.040960000 -s 27 -d -1 -p cbr -e 512 -c 2 -a 0 -i 119 -k AGT
h -t 0.040960000 -s 27 -d -1 -p cbr -e 512 -c 2 -a 0 -i 119 -k AGT
+ -t 0.040960000 -s 28 -d -1 -p cbr -e 512 -c 2 -a 0 -i 120 -k AGT 
- -t 0.040960000 -s 28 -d -1 -p cbr -e 512 -c 2 -a 0 -i 120 -k AGT
h -t 0.040960000 -s 28 -d -1 -p cbr -e 512 -c 2 -a 0 -i 120 -k AGT