M 0.00000 1 (494.35, 117.50, 0.00), (494.35, 117.50), 0.00
M 0.00000 2 (346.56, 101.70, 0.00), (346.56, 101.70), 0.00
M 0.00000 3 (291.26, 195.19, 0.00), (291.26, 195.19), 0.00
M 0.00000 4 (489.50, 35.61, 0.00), (489.50, 35.61), 0.00
M 0.00000 5 (34.09, 479.87, 0.00), (34.09, 479.87), 0.00
M 0.00000 6 (94.37, 32.43, 0.00), (94.37, 32.43), 0.00
M 0.00000 7 (76.76, 61.74, 0.00), (76.76, 61.74), 0.00
M 0.00000 8 (178.78, 208.89, 0.00), (178.78, 208.89), 0.00
M 0.00000 0 (0.00, 0.00, 0.00), (178.78, 208.89), 0.00
M 0.00000 9 (300.00, 450.00, 0.00), (178.78, 208.89), 0.00
s 0.036772557 _1_ RTR  --- 0 message 32 [0 0 0 0] ------- [1:255 -1:255 32 0] 
r 0.038132830 _4_ RTR  --- 0 message 32 [0 ffffffff 1 800] ------- [1:255 -1:255 32 0] 
r 0.038133052 _2_ RTR  --- 0 message 32 [0 ffffffff 1 800] ------- [1:255 -1:255 32 0] 
r 0.038133281 _3_ RTR  --- 0 message 32 [0 ffffffff 1 800] ------- [1:255 -1:255 32 0] 
s 0.177383425 _2_ RTR  --- 1 message 32 [0 0 0 0] ------- [2:255 -1:255 32 0] 
r 0.178363787 _3_ RTR  --- 1 message 32 [0 ffffffff 2 800] ------- [2:255 -1:255 32 0] 
r 0.178363921 _1_ RTR  --- 1 message 32 [0 ffffffff 2 800] ------- [2:255 -1:255 32 0] 
r 0.178363950 _4_ RTR  --- 1 message 32 [0 ffffffff 2 800] ------- [2:255 -1:255 32 0] 
r 0.178364089 _8_ RTR  --- 1 message 32 [0 ffffffff 2 800] ------- [2:255 -1:255 32 0] 
s 0.470144892 _7_ RTR  --- 2 message 32 [0 0 0 0] ------- [7:255 -1:255 32 0] 
r 0.471165006 _6_ RTR  --- 2 message 32 [0 ffffffff 7 800] ------- [7:255 -1:255 32 0] 
r 0.471165221 _0_ RTR  --- 2 message 32 [0 ffffffff 7 800] ------- [7:255 -1:255 32 0] 
r 0.471165489 _8_ RTR  --- 2 message 32 [0 ffffffff 7 800] ------- [7:255 -1:255 32 0] 
s 0.622244972 _9_ RTR  --- 3 message 32 [0 0 0 0] ------- [9:255 -1:255 32 0] 
s 0.634544216 _5_ RTR  --- 4 message 32 [0 0 0 0] ------- [5:255 -1:255 32 0] 
s 0.890857830 _3_ RTR  --- 5 message 32 [0 0 0 0] ------- [3:255 -1:255 32 0] 
r 0.892038192 _2_ RTR  --- 5 message 32 [0 ffffffff 3 800] ------- [3:255 -1:255 32 0] 
r 0.892038207 _8_ RTR  --- 5 message 32 [0 ffffffff 3 800] ------- [3:255 -1:255 32 0] 
r 0.892038554 _1_ RTR  --- 5 message 32 [0 ffffffff 3 800] ------- [3:255 -1:255 32 0] 
s 1.000000000 _0_ AGT  --- 6 tcp 40 [0 0 0 0] ------- [0:0 9:0 32 0] [0 0] 0 0
r 1.000000000 _0_ RTR  --- 6 tcp 40 [0 0 0 0] ------- [0:0 9:0 32 0] [0 0] 0 0
s 1.115816623 _0_ RTR  --- 7 message 32 [0 0 0 0] ------- [0:255 -1:255 32 0] 
r 1.116836951 _7_ RTR  --- 7 message 32 [0 ffffffff 0 800] ------- [0:255 -1:255 32 0] 
r 1.116836955 _6_ RTR  --- 7 message 32 [0 ffffffff 0 800] ------- [0:255 -1:255 32 0] 
s 1.286604722 _8_ RTR  --- 8 message 32 [0 0 0 0] ------- [8:255 -1:255 32 0] 
r 1.287625100 _3_ RTR  --- 8 message 32 [0 ffffffff 8 800] ------- [8:255 -1:255 32 0] 
r 1.287625319 _7_ RTR  --- 8 message 32 [0 ffffffff 8 800] ------- [8:255 -1:255 32 0] 
r 1.287625374 _6_ RTR  --- 8 message 32 [0 ffffffff 8 800] ------- [8:255 -1:255 32 0] 
r 1.287625386 _2_ RTR  --- 8 message 32 [0 ffffffff 8 800] ------- [8:255 -1:255 32 0] 
s 1.598894933 _4_ RTR  --- 9 message 32 [0 0 0 0] ------- [4:255 -1:255 32 0] 
r 1.600055207 _1_ RTR  --- 9 message 32 [0 ffffffff 4 800] ------- [4:255 -1:255 32 0] 
r 1.600055458 _2_ RTR  --- 9 message 32 [0 ffffffff 4 800] ------- [4:255 -1:255 32 0] 
s 1.634183138 _6_ RTR  --- 10 message 32 [0 0 0 0] ------- [6:255 -1:255 32 0] 
r 1.635283252 _7_ RTR  --- 10 message 32 [0 ffffffff 6 800] ------- [6:255 -1:255 32 0] 
r 1.635283470 _0_ RTR  --- 10 message 32 [0 ffffffff 6 800] ------- [6:255 -1:255 32 0] 
r 1.635283790 _8_ RTR  --- 10 message 32 [0 ffffffff 6 800] ------- [6:255 -1:255 32 0] 
s 4.000000000 _0_ AGT  --- 11 tcp 40 [0 0 0 0] ------- [0:0 9:0 32 0] [0 0] 0 0
r 4.000000000 _0_ RTR  --- 11 tcp 40 [0 0 0 0] ------- [0:0 9:0 32 0] [0 0] 0 0
M 10.00000 9 (300.00, 450.00, 0.00), (25.00, 20.00), 15.00
M 10.00000 0 (0.00, 0.00, 0.00), (200.00, 108.00), 1.00
s 10.000000000 _0_ AGT  --- 12 tcp 40 [0 0 0 0] ------- [0:0 9:0 32 0] [0 0] 0 0
r 10.000000000 _0_ RTR  --- 12 tcp 40 [0 0 0 0] ------- [0:0 9:0 32 0] [0 0] 0 0
s 11.899402816 _1_ RTR  --- 13 message 32 [0 0 0 0] ------- [1:255 -1:255 32 0] 
r 11.900543089 _4_ RTR  --- 13 message 32 [0 ffffffff 1 800] ------- [1:255 -1:255 32 0] 
r 11.900543311 _2_ RTR  --- 13 message 32 [0 ffffffff 1 800] ------- [1:255 -1:255 32 0] 
r 11.900543541 _3_ RTR  --- 13 message 32 [0 ffffffff 1 800] ------- [1:255 -1:255 32 0] 
s 12.178639525 _4_ RTR  --- 18 message 32 [0 0 0 0] ------- [4:255 -1:255 32 0] 
r 12.179459798 _1_ RTR  --- 18 message 32 [0 ffffffff 4 800] ------- [4:255 -1:255 32 0] 
r 12.179460050 _2_ RTR  --- 18 message 32 [0 ffffffff 4 800] ------- [4:255 -1:255 32 0] 
s 12.181637259 _8_ RTR  --- 19 message 32 [0 0 0 0] ------- [8:255 -1:255 32 0] 
s 12.182620660 _3_ RTR  --- 17 message 32 [0 0 0 0] ------- [3:255 -1:255 32 0] 
r 12.182757636 _3_ RTR  --- 19 message 32 [0 ffffffff 8 800] ------- [8:255 -1:255 32 0] 
r 12.182757856 _7_ RTR  --- 19 message 32 [0 ffffffff 8 800] ------- [8:255 -1:255 32 0] 
r 12.182757911 _6_ RTR  --- 19 message 32 [0 ffffffff 8 800] ------- [8:255 -1:255 32 0] 
r 12.182757922 _2_ RTR  --- 19 message 32 [0 ffffffff 8 800] ------- [8:255 -1:255 32 0] 
r 12.182758050 _9_ RTR  --- 19 message 32 [0 ffffffff 8 800] ------- [8:255 -1:255 32 0] 
r 12.183807999 _2_ RTR  --- 17 message 32 [0 ffffffff 3 800] ------- [3:255 -1:255 32 0] 
r 12.183808014 _8_ RTR  --- 17 message 32 [0 ffffffff 3 800] ------- [3:255 -1:255 32 0] 
r 12.183808361 _1_ RTR  --- 17 message 32 [0 ffffffff 3 800] ------- [3:255 -1:255 32 0] 
r 12.183808394 _9_ RTR  --- 17 message 32 [0 ffffffff 3 800] ------- [3:255 -1:255 32 0] 
s 12.472952285 _6_ RTR  --- 20 message 32 [0 0 0 0] ------- [6:255 -1:255 32 0] 
r 12.474072399 _7_ RTR  --- 20 message 32 [0 ffffffff 6 800] ------- [6:255 -1:255 32 0] 
r 12.474072609 _0_ RTR  --- 20 message 32 [0 ffffffff 6 800] ------- [6:255 -1:255 32 0] 
r 12.474072937 _8_ RTR  --- 20 message 32 [0 ffffffff 6 800] ------- [6:255 -1:255 32 0] 
s 12.480925288 _0_ RTR  --- 21 message 32 [0 0 0 0] ------- [0:255 -1:255 32 0] 
r 12.482205608 _7_ RTR  --- 21 message 32 [0 ffffffff 0 800] ------- [0:255 -1:255 32 0] 
r 12.482205612 _6_ RTR  --- 21 message 32 [0 ffffffff 0 800] ------- [0:255 -1:255 32 0] 
s 12.776584687 _0_ RTR  --- 22 message 44 [0 0 0 0] ------- [0:255 -1:255 32 0] 
r 12.777581006 _7_ RTR  --- 22 message 44 [0 ffffffff 0 800] ------- [0:255 -1:255 32 0] 
r 12.777581011 _6_ RTR  --- 22 message 44 [0 ffffffff 0 800] ------- [0:255 -1:255 32 0] 
s 12.896986177 _4_ RTR  --- 23 message 44 [0 0 0 0] ------- [4:255 -1:255 32 0] 
r 12.898022450 _1_ RTR  --- 23 message 44 [0 ffffffff 4 800] ------- [4:255 -1:255 32 0] 
r 12.898022702 _2_ RTR  --- 23 message 44 [0 ffffffff 4 800] ------- [4:255 -1:255 32 0] 
s 12.899318609 _2_ RTR  --- 24 message 32 [0 0 0 0] ------- [2:255 -1:255 32 0] 
r 12.900718971 _3_ RTR  --- 24 message 32 [0 ffffffff 2 800] ------- [2:255 -1:255 32 0] 
r 12.900719105 _1_ RTR  --- 24 message 32 [0 ffffffff 2 800] ------- [2:255 -1:255 32 0] 
r 12.900719134 _4_ RTR  --- 24 message 32 [0 ffffffff 2 800] ------- [2:255 -1:255 32 0] 
r 12.900719273 _8_ RTR  --- 24 message 32 [0 ffffffff 2 800] ------- [2:255 -1:255 32 0] 
s 12.902701059 _1_ RTR  --- 25 message 44 [0 0 0 0] ------- [1:255 -1:255 32 0] 
r 12.904217333 _4_ RTR  --- 25 message 44 [0 ffffffff 1 800] ------- [1:255 -1:255 32 0] 
r 12.904217555 _2_ RTR  --- 25 message 44 [0 ffffffff 1 800] ------- [1:255 -1:255 32 0] 
r 12.904217784 _3_ RTR  --- 25 message 44 [0 ffffffff 1 800] ------- [1:255 -1:255 32 0] 
s 13.186201839 _8_ RTR  --- 27 message 56 [0 0 0 0] ------- [8:255 -1:255 32 0] 
r 13.187514217 _3_ RTR  --- 27 message 56 [0 ffffffff 8 800] ------- [8:255 -1:255 32 0] 
r 13.187514436 _7_ RTR  --- 27 message 56 [0 ffffffff 8 800] ------- [8:255 -1:255 32 0] 
r 13.187514491 _6_ RTR  --- 27 message 56 [0 ffffffff 8 800] ------- [8:255 -1:255 32 0] 
r 13.187514503 _2_ RTR  --- 27 message 56 [0 ffffffff 8 800] ------- [8:255 -1:255 32 0] 
r 13.187514581 _9_ RTR  --- 27 message 56 [0 ffffffff 8 800] ------- [8:255 -1:255 32 0] 
s 13.291688875 _3_ RTR  --- 28 message 44 [0 0 0 0] ------- [3:255 -1:255 32 0] 
r 13.292645237 _2_ RTR  --- 28 message 44 [0 ffffffff 3 800] ------- [3:255 -1:255 32 0] 
r 13.292645253 _8_ RTR  --- 28 message 44 [0 ffffffff 3 800] ------- [3:255 -1:255 32 0] 
r 13.292645588 _9_ RTR  --- 28 message 44 [0 ffffffff 3 800] ------- [3:255 -1:255 32 0] 
r 13.292645600 _1_ RTR  --- 28 message 44 [0 ffffffff 3 800] ------- [3:255 -1:255 32 0] 
s 13.293086549 _7_ RTR  --- 29 message 32 [0 0 0 0] ------- [7:255 -1:255 32 0] 
r 13.294126663 _6_ RTR  --- 29 message 32 [0 ffffffff 7 800] ------- [7:255 -1:255 32 0] 
r 13.294126867 _0_ RTR  --- 29 message 32 [0 ffffffff 7 800] ------- [7:255 -1:255 32 0] 
r 13.294127146 _8_ RTR  --- 29 message 32 [0 ffffffff 7 800] ------- [7:255 -1:255 32 0] 
s 13.478121904 _6_ RTR  --- 30 message 44 [0 0 0 0] ------- [6:255 -1:255 32 0] 
r 13.479478018 _7_ RTR  --- 30 message 44 [0 ffffffff 6 800] ------- [6:255 -1:255 32 0] 
r 13.479478225 _0_ RTR  --- 30 message 44 [0 ffffffff 6 800] ------- [6:255 -1:255 32 0] 
r 13.479478556 _8_ RTR  --- 30 message 44 [0 ffffffff 6 800] ------- [6:255 -1:255 32 0] 
s 13.774908175 _0_ RTR  --- 31 message 32 [0 0 0 0] ------- [0:255 -1:255 32 0] 
r 13.775888491 _7_ RTR  --- 31 message 32 [0 ffffffff 0 800] ------- [0:255 -1:255 32 0] 
r 13.775888495 _6_ RTR  --- 31 message 32 [0 ffffffff 0 800] ------- [0:255 -1:255 32 0] 
s 13.816308444 _9_ RTR  --- 32 message 32 [0 0 0 0] ------- [9:255 -1:255 32 0] 
r 13.817489137 _3_ RTR  --- 32 message 32 [0 ffffffff 9 800] ------- [9:255 -1:255 32 0] 
r 13.817489154 _8_ RTR  --- 32 message 32 [0 ffffffff 9 800] ------- [9:255 -1:255 32 0] 
r 13.817489270 _5_ RTR  --- 32 message 32 [0 ffffffff 9 800] ------- [9:255 -1:255 32 0] 
s 13.893750382 _2_ RTR  --- 33 message 44 [0 0 0 0] ------- [2:255 -1:255 32 0] 
r 13.895166744 _3_ RTR  --- 33 message 44 [0 ffffffff 2 800] ------- [2:255 -1:255 32 0] 
r 13.895166877 _1_ RTR  --- 33 message 44 [0 ffffffff 2 800] ------- [2:255 -1:255 32 0] 
r 13.895166907 _4_ RTR  --- 33 message 44 [0 ffffffff 2 800] ------- [2:255 -1:255 32 0] 
r 13.895167045 _8_ RTR  --- 33 message 44 [0 ffffffff 2 800] ------- [2:255 -1:255 32 0] 
s 13.901506951 _1_ RTR  --- 34 message 44 [0 0 0 0] ------- [1:255 -1:255 32 0] 
r 13.902443224 _4_ RTR  --- 34 message 44 [0 ffffffff 1 800] ------- [1:255 -1:255 32 0] 
r 13.902443446 _2_ RTR  --- 34 message 44 [0 ffffffff 1 800] ------- [1:255 -1:255 32 0] 
r 13.902443676 _3_ RTR  --- 34 message 44 [0 ffffffff 1 800] ------- [1:255 -1:255 32 0] 
s 14.180440240 _8_ RTR  --- 35 message 80 [0 0 0 0] ------- [8:255 -1:255 32 0] 
r 14.181704618 _3_ RTR  --- 35 message 80 [0 ffffffff 8 800] ------- [8:255 -1:255 32 0] 
r 14.181704837 _7_ RTR  --- 35 message 80 [0 ffffffff 8 800] ------- [8:255 -1:255 32 0] 
r 14.181704892 _6_ RTR  --- 35 message 80 [0 ffffffff 8 800] ------- [8:255 -1:255 32 0] 
r 14.181704904 _2_ RTR  --- 35 message 80 [0 ffffffff 8 800] ------- [8:255 -1:255 32 0] 
r 14.181704932 _9_ RTR  --- 35 message 80 [0 ffffffff 8 800] ------- [8:255 -1:255 32 0] 
s 14.291997541 _7_ RTR  --- 36 message 32 [0 0 0 0] ------- [7:255 -1:255 32 0] 
r 14.293237655 _6_ RTR  --- 36 message 32 [0 ffffffff 7 800] ------- [7:255 -1:255 32 0] 
r 14.293237855 _0_ RTR  --- 36 message 32 [0 ffffffff 7 800] ------- [7:255 -1:255 32 0] 
r 14.293238137 _8_ RTR  --- 36 message 32 [0 ffffffff 7 800] ------- [7:255 -1:255 32 0] 
s 14.659218354 _2_ RTR  --- 37 message 44 [0 0 0 0] ------- [2:255 -1:255 32 0] 
r 14.660394716 _3_ RTR  --- 37 message 44 [0 ffffffff 2 800] ------- [2:255 -1:255 32 0] 
r 14.660394850 _1_ RTR  --- 37 message 44 [0 ffffffff 2 800] ------- [2:255 -1:255 32 0] 
r 14.660394879 _4_ RTR  --- 37 message 44 [0 ffffffff 2 800] ------- [2:255 -1:255 32 0] 
r 14.660395018 _8_ RTR  --- 37 message 44 [0 ffffffff 2 800] ------- [2:255 -1:255 32 0] 
s 14.676480092 _3_ RTR  --- 38 message 32 [0 0 0 0] ------- [3:255 -1:255 32 0] 
r 14.677740454 _2_ RTR  --- 38 message 32 [0 ffffffff 3 800] ------- [3:255 -1:255 32 0] 
r 14.677740470 _8_ RTR  --- 38 message 32 [0 ffffffff 3 800] ------- [3:255 -1:255 32 0] 
r 14.677740751 _9_ RTR  --- 38 message 32 [0 ffffffff 3 800] ------- [3:255 -1:255 32 0] 
r 14.677740817 _1_ RTR  --- 38 message 32 [0 ffffffff 3 800] ------- [3:255 -1:255 32 0] 
s 14.751789479 _7_ RTR  --- 39 message 44 [0 0 0 0] ------- [7:255 -1:255 32 0] 
r 14.752885593 _6_ RTR  --- 39 message 44 [0 ffffffff 7 800] ------- [7:255 -1:255 32 0] 
r 14.752885792 _0_ RTR  --- 39 message 44 [0 ffffffff 7 800] ------- [7:255 -1:255 32 0] 
r 14.752886076 _8_ RTR  --- 39 message 44 [0 ffffffff 7 800] ------- [7:255 -1:255 32 0] 
s 15.025912944 _5_ RTR  --- 40 message 32 [0 0 0 0] ------- [5:255 -1:255 32 0] 
r 15.026973757 _9_ RTR  --- 40 message 32 [0 ffffffff 5 800] ------- [5:255 -1:255 32 0] 
s 15.396076714 _6_ RTR  --- 41 message 32 [0 0 0 0] ------- [6:255 -1:255 32 0] 
r 15.397436828 _7_ RTR  --- 41 message 32 [0 ffffffff 6 800] ------- [6:255 -1:255 32 0] 
r 15.397437029 _0_ RTR  --- 41 message 32 [0 ffffffff 6 800] ------- [6:255 -1:255 32 0] 
r 15.397437366 _8_ RTR  --- 41 message 32 [0 ffffffff 6 800] ------- [6:255 -1:255 32 0] 
s 22.000000000 _0_ AGT  --- 42 tcp 40 [0 0 0 0] ------- [0:0 9:0 32 0] [0 0] 0 0
r 22.000000000 _0_ RTR  --- 42 tcp 40 [0 0 0 0] ------- [0:0 9:0 32 0] [0 0] 0 0
s 24.183344835 _7_ RTR  --- 43 message 44 [0 0 0 0] ------- [7:255 -1:255 32 0] 
r 24.184780949 _6_ RTR  --- 43 message 44 [0 ffffffff 7 800] ------- [7:255 -1:255 32 0] 
r 24.184781117 _0_ RTR  --- 43 message 44 [0 ffffffff 7 800] ------- [7:255 -1:255 32 0] 
r 24.184781432 _8_ RTR  --- 43 message 44 [0 ffffffff 7 800] ------- [7:255 -1:255 32 0] 
r 24.184781620 _9_ RTR  --- 43 message 44 [0 ffffffff 7 800] ------- [7:255 -1:255 32 0] 
s 24.186157524 _6_ RTR  --- 44 message 44 [0 0 0 0] ------- [6:255 -1:255 32 0] 
r 24.187313638 _7_ RTR  --- 44 message 44 [0 ffffffff 6 800] ------- [6:255 -1:255 32 0] 
r 24.187313810 _0_ RTR  --- 44 message 44 [0 ffffffff 6 800] ------- [6:255 -1:255 32 0] 
r 24.187314176 _8_ RTR  --- 44 message 44 [0 ffffffff 6 800] ------- [6:255 -1:255 32 0] 
s 24.190698430 _9_ RTR  --- 45 message 56 [0 0 0 0] ------- [9:255 -1:255 32 0] 
r 24.191810637 _8_ RTR  --- 45 message 56 [0 ffffffff 9 800] ------- [9:255 -1:255 32 0] 
r 24.191810863 _3_ RTR  --- 45 message 56 [0 ffffffff 9 800] ------- [9:255 -1:255 32 0] 
r 24.191811208 _2_ RTR  --- 45 message 56 [0 ffffffff 9 800] ------- [9:255 -1:255 32 0] 
r 24.191811214 _7_ RTR  --- 45 message 56 [0 ffffffff 9 800] ------- [9:255 -1:255 32 0] 
s 24.909733516 _4_ RTR  --- 46 message 44 [0 0 0 0] ------- [4:255 -1:255 32 0] 
r 24.911029789 _1_ RTR  --- 46 message 44 [0 ffffffff 4 800] ------- [4:255 -1:255 32 0] 
r 24.911030041 _2_ RTR  --- 46 message 44 [0 ffffffff 4 800] ------- [4:255 -1:255 32 0] 
s 25.188179342 _6_ RTR  --- 49 message 80 [0 0 0 0] ------- [6:255 -1:255 32 0] 
r 25.189923456 _7_ RTR  --- 49 message 80 [0 ffffffff 6 800] ------- [6:255 -1:255 32 0] 
r 25.189923625 _0_ RTR  --- 49 message 80 [0 ffffffff 6 800] ------- [6:255 -1:255 32 0] 
r 25.189923994 _8_ RTR  --- 49 message 80 [0 ffffffff 6 800] ------- [6:255 -1:255 32 0] 
r 25.189924143 _9_ RTR  --- 49 message 80 [0 ffffffff 6 800] ------- [6:255 -1:255 32 0] 
s 25.192694801 _2_ RTR  --- 50 message 92 [0 0 0 0] ------- [2:255 -1:255 32 0] 
s 25.192916753 _7_ RTR  --- 48 message 56 [0 0 0 0] ------- [7:255 -1:255 32 0] 
r 25.194475163 _3_ RTR  --- 50 message 92 [0 ffffffff 2 800] ------- [2:255 -1:255 32 0] 
r 25.194475297 _1_ RTR  --- 50 message 92 [0 ffffffff 2 800] ------- [2:255 -1:255 32 0] 
r 25.194475326 _4_ RTR  --- 50 message 92 [0 ffffffff 2 800] ------- [2:255 -1:255 32 0] 
r 25.194475465 _8_ RTR  --- 50 message 92 [0 ffffffff 2 800] ------- [2:255 -1:255 32 0] 
r 25.194475570 _9_ RTR  --- 50 message 92 [0 ffffffff 2 800] ------- [2:255 -1:255 32 0] 
s 25.194812455 _9_ RTR  --- 51 message 80 [0 0 0 0] ------- [9:255 -1:255 32 0] 
r 25.196096618 _8_ RTR  --- 51 message 80 [0 ffffffff 9 800] ------- [9:255 -1:255 32 0] 
r 25.196096889 _3_ RTR  --- 51 message 80 [0 ffffffff 9 800] ------- [9:255 -1:255 32 0] 
r 25.196097189 _7_ RTR  --- 51 message 80 [0 ffffffff 9 800] ------- [9:255 -1:255 32 0] 
r 25.196097223 _2_ RTR  --- 51 message 80 [0 ffffffff 9 800] ------- [9:255 -1:255 32 0] 
r 25.196097255 _6_ RTR  --- 51 message 80 [0 ffffffff 9 800] ------- [9:255 -1:255 32 0] 
s 25.196964458 _3_ RTR  --- 47 message 80 [0 0 0 0] ------- [3:255 -1:255 32 0] 
r 25.197079303 _6_ RTR  --- 48 message 56 [0 ffffffff 7 800] ------- [7:255 -1:255 32 0] 
r 25.197079468 _0_ RTR  --- 48 message 56 [0 ffffffff 7 800] ------- [7:255 -1:255 32 0] 
r 25.197079786 _8_ RTR  --- 48 message 56 [0 ffffffff 7 800] ------- [7:255 -1:255 32 0] 
r 25.197079924 _9_ RTR  --- 48 message 56 [0 ffffffff 7 800] ------- [7:255 -1:255 32 0] 
r 25.198898394 _2_ RTR  --- 47 message 80 [0 ffffffff 3 800] ------- [3:255 -1:255 32 0] 
r 25.198898409 _8_ RTR  --- 47 message 80 [0 ffffffff 3 800] ------- [3:255 -1:255 32 0] 
r 25.198898465 _9_ RTR  --- 47 message 80 [0 ffffffff 3 800] ------- [3:255 -1:255 32 0] 
r 25.198898756 _1_ RTR  --- 47 message 80 [0 ffffffff 3 800] ------- [3:255 -1:255 32 0] 
s 25.299200016 _1_ RTR  --- 52 message 32 [0 0 0 0] ------- [1:255 -1:255 32 0] 
r 25.300540290 _4_ RTR  --- 52 message 32 [0 ffffffff 1 800] ------- [1:255 -1:255 32 0] 
r 25.300540512 _2_ RTR  --- 52 message 32 [0 ffffffff 1 800] ------- [1:255 -1:255 32 0] 
r 25.300540741 _3_ RTR  --- 52 message 32 [0 ffffffff 1 800] ------- [1:255 -1:255 32 0] 
s 25.302672421 _0_ RTR  --- 53 message 32 [0 0 0 0] ------- [0:255 -1:255 32 0] 
r 25.303572700 _7_ RTR  --- 53 message 32 [0 ffffffff 0 800] ------- [0:255 -1:255 32 0] 
r 25.303572704 _6_ RTR  --- 53 message 32 [0 ffffffff 0 800] ------- [0:255 -1:255 32 0] 
s 25.818263128 _8_ RTR  --- 54 message 32 [0 0 0 0] ------- [8:255 -1:255 32 0] 
s 25.818683428 _5_ RTR  --- 55 message 32 [0 0 0 0] ------- [5:255 -1:255 32 0] 
r 25.819403267 _9_ RTR  --- 54 message 32 [0 ffffffff 8 800] ------- [8:255 -1:255 32 0] 
r 25.819403505 _3_ RTR  --- 54 message 32 [0 ffffffff 8 800] ------- [8:255 -1:255 32 0] 
r 25.819403724 _7_ RTR  --- 54 message 32 [0 ffffffff 8 800] ------- [8:255 -1:255 32 0] 
r 25.819403780 _6_ RTR  --- 54 message 32 [0 ffffffff 8 800] ------- [8:255 -1:255 32 0] 
r 25.819403791 _2_ RTR  --- 54 message 32 [0 ffffffff 8 800] ------- [8:255 -1:255 32 0] 
s 25.910257618 _4_ RTR  --- 56 message 32 [0 0 0 0] ------- [4:255 -1:255 32 0] 
r 25.911197892 _1_ RTR  --- 56 message 32 [0 ffffffff 4 800] ------- [4:255 -1:255 32 0] 
r 25.911198143 _2_ RTR  --- 56 message 32 [0 ffffffff 4 800] ------- [4:255 -1:255 32 0] 
s 26.191817830 _3_ RTR  --- 57 message 32 [0 0 0 0] ------- [3:255 -1:255 32 0] 
r 26.192718192 _2_ RTR  --- 57 message 32 [0 ffffffff 3 800] ------- [3:255 -1:255 32 0] 
r 26.192718208 _8_ RTR  --- 57 message 32 [0 ffffffff 3 800] ------- [3:255 -1:255 32 0] 
r 26.192718270 _9_ RTR  --- 57 message 32 [0 ffffffff 3 800] ------- [3:255 -1:255 32 0] 
r 26.192718555 _1_ RTR  --- 57 message 32 [0 ffffffff 3 800] ------- [3:255 -1:255 32 0] 
s 26.195814957 _2_ RTR  --- 58 message 32 [0 0 0 0] ------- [2:255 -1:255 32 0] 
r 26.197095319 _3_ RTR  --- 58 message 32 [0 ffffffff 2 800] ------- [2:255 -1:255 32 0] 
r 26.197095452 _1_ RTR  --- 58 message 32 [0 ffffffff 2 800] ------- [2:255 -1:255 32 0] 
r 26.197095482 _4_ RTR  --- 58 message 32 [0 ffffffff 2 800] ------- [2:255 -1:255 32 0] 
r 26.197095621 _8_ RTR  --- 58 message 32 [0 ffffffff 2 800] ------- [2:255 -1:255 32 0] 
r 26.197095718 _9_ RTR  --- 58 message 32 [0 ffffffff 2 800] ------- [2:255 -1:255 32 0] 
s 26.435583665 _1_ RTR  --- 60 message 44 [0 0 0 0] ------- [1:255 -1:255 32 0] 
r 26.436599939 _4_ RTR  --- 60 message 44 [0 ffffffff 1 800] ------- [1:255 -1:255 32 0] 
r 26.436600161 _2_ RTR  --- 60 message 44 [0 ffffffff 1 800] ------- [1:255 -1:255 32 0] 
r 26.436600390 _3_ RTR  --- 60 message 44 [0 ffffffff 1 800] ------- [1:255 -1:255 32 0] 
s 26.777882706 _0_ RTR  --- 61 message 44 [0 0 0 0] ------- [0:255 -1:255 32 0] 
r 26.778898980 _7_ RTR  --- 61 message 44 [0 ffffffff 0 800] ------- [0:255 -1:255 32 0] 
r 26.778898984 _6_ RTR  --- 61 message 44 [0 ffffffff 0 800] ------- [0:255 -1:255 32 0] 
s 26.946219088 _5_ RTR  --- 62 message 44 [0 0 0 0] ------- [5:255 -1:255 32 0] 
s 27.027173100 _9_ RTR  --- 63 message 32 [0 0 0 0] ------- [9:255 -1:255 32 0] 
r 27.028253203 _8_ RTR  --- 63 message 32 [0 ffffffff 9 800] ------- [9:255 -1:255 32 0] 
r 27.028253550 _3_ RTR  --- 63 message 32 [0 ffffffff 9 800] ------- [9:255 -1:255 32 0] 
r 27.028253744 _7_ RTR  --- 63 message 32 [0 ffffffff 9 800] ------- [9:255 -1:255 32 0] 
r 27.028253812 _6_ RTR  --- 63 message 32 [0 ffffffff 9 800] ------- [9:255 -1:255 32 0] 
r 27.028253858 _2_ RTR  --- 63 message 32 [0 ffffffff 9 800] ------- [9:255 -1:255 32 0] 
s 27.125468965 _8_ RTR  --- 64 message 44 [0 0 0 0] ------- [8:255 -1:255 32 0] 
r 27.126725066 _9_ RTR  --- 64 message 44 [0 ffffffff 8 800] ------- [8:255 -1:255 32 0] 
r 27.126725343 _3_ RTR  --- 64 message 44 [0 ffffffff 8 800] ------- [8:255 -1:255 32 0] 
r 27.126725562 _7_ RTR  --- 64 message 44 [0 ffffffff 8 800] ------- [8:255 -1:255 32 0] 
r 27.126725617 _6_ RTR  --- 64 message 44 [0 ffffffff 8 800] ------- [8:255 -1:255 32 0] 
r 27.126725629 _2_ RTR  --- 64 message 44 [0 ffffffff 8 800] ------- [8:255 -1:255 32 0] 
s 27.527158423 _4_ RTR  --- 65 message 32 [0 0 0 0] ------- [4:255 -1:255 32 0] 
r 27.528458697 _1_ RTR  --- 65 message 32 [0 ffffffff 4 800] ------- [4:255 -1:255 32 0] 
r 27.528458948 _2_ RTR  --- 65 message 32 [0 ffffffff 4 800] ------- [4:255 -1:255 32 0] 
s 29.190771682 _7_ RTR  --- 66 message 44 [0 0 0 0] ------- [7:255 -1:255 32 0] 
r 29.192107796 _6_ RTR  --- 66 message 44 [0 ffffffff 7 800] ------- [7:255 -1:255 32 0] 
r 29.192107948 _0_ RTR  --- 66 message 44 [0 ffffffff 7 800] ------- [7:255 -1:255 32 0] 
r 29.192108218 _9_ RTR  --- 66 message 44 [0 ffffffff 7 800] ------- [7:255 -1:255 32 0] 
r 29.192108279 _8_ RTR  --- 66 message 44 [0 ffffffff 7 800] ------- [7:255 -1:255 32 0] 
s 36.188334354 _9_ RTR  --- 69 message 104 [0 0 0 0] ------- [9:255 -1:255 32 0] 
s 36.188694737 _8_ RTR  --- 68 message 92 [0 0 0 0] ------- [8:255 -1:255 32 0] 
s 36.189832170 _0_ RTR  --- 67 message 56 [0 0 0 0] ------- [0:255 -1:255 32 0] 
r 36.190110549 _7_ RTR  --- 69 message 104 [0 ffffffff 9 800] ------- [9:255 -1:255 32 0] 
r 36.190110643 _6_ RTR  --- 69 message 104 [0 ffffffff 9 800] ------- [9:255 -1:255 32 0] 
r 36.190110771 _0_ RTR  --- 69 message 104 [0 ffffffff 9 800] ------- [9:255 -1:255 32 0] 
s 36.190110771 _0_ RTR  --- 6 tcp 80 [0 0 0 0] ------- [0:0 9:0 32 9] [0 0] 0 0
s 36.190110771 _0_ RTR  --- 11 tcp 80 [0 0 0 0] ------- [0:0 9:0 32 9] [0 0] 0 0
D 36.190110771 _0_ IFQ  ARP 6 tcp 80 [0 0 0 800] ------- [0:0 9:0 32 9] [0 0] 0 0
s 36.190110771 _0_ RTR  --- 12 tcp 80 [0 0 0 0] ------- [0:0 9:0 32 9] [0 0] 0 0
D 36.190110771 _0_ IFQ  ARP 11 tcp 80 [0 0 0 800] ------- [0:0 9:0 32 9] [0 0] 0 0
s 36.190110771 _0_ RTR  --- 42 tcp 80 [0 0 0 0] ------- [0:0 9:0 32 9] [0 0] 0 0
D 36.190110771 _0_ RTR  CBK 12 tcp 80 [0 0 0 800] ------- [0:0 9:0 32 9] [0 0] 0 0
D 36.190110771 _0_ RTR  CBK 42 tcp 80 [0 0 0 800] ------- [0:0 9:0 32 9] [0 0] 0 0
r 36.190110779 _8_ RTR  --- 69 message 104 [0 ffffffff 9 800] ------- [9:255 -1:255 32 0] 
r 36.190111076 _3_ RTR  --- 69 message 104 [0 ffffffff 9 800] ------- [9:255 -1:255 32 0] 
r 36.191821157 _3_ RTR  --- 68 message 92 [0 ffffffff 8 800] ------- [8:255 -1:255 32 0] 
r 36.191821204 _9_ RTR  --- 68 message 92 [0 ffffffff 8 800] ------- [8:255 -1:255 32 0] 
r 36.191821376 _7_ RTR  --- 68 message 92 [0 ffffffff 8 800] ------- [8:255 -1:255 32 0] 
r 36.191821431 _6_ RTR  --- 68 message 92 [0 ffffffff 8 800] ------- [8:255 -1:255 32 0] 
r 36.191821443 _2_ RTR  --- 68 message 92 [0 ffffffff 8 800] ------- [8:255 -1:255 32 0] 
r 36.193287857 _7_ RTR  --- 67 message 56 [0 ffffffff 0 800] ------- [0:255 -1:255 32 0] 
r 36.193287861 _6_ RTR  --- 67 message 56 [0 ffffffff 0 800] ------- [0:255 -1:255 32 0] 
r 36.193288031 _9_ RTR  --- 67 message 56 [0 ffffffff 0 800] ------- [0:255 -1:255 32 0] 
s 37.011020227 _3_ RTR  --- 70 message 68 [0 0 0 0] ------- [3:255 -1:255 32 0] 
r 37.012688589 _2_ RTR  --- 70 message 68 [0 ffffffff 3 800] ------- [3:255 -1:255 32 0] 
r 37.012688605 _8_ RTR  --- 70 message 68 [0 ffffffff 3 800] ------- [3:255 -1:255 32 0] 
r 37.012688952 _1_ RTR  --- 70 message 68 [0 ffffffff 3 800] ------- [3:255 -1:255 32 0] 
r 37.012688983 _9_ RTR  --- 70 message 68 [0 ffffffff 3 800] ------- [3:255 -1:255 32 0] 
s 37.194536386 _0_ RTR  --- 71 message 32 [0 0 0 0] ------- [0:255 -1:255 32 0] 
r 37.195796625 _7_ RTR  --- 71 message 32 [0 ffffffff 0 800] ------- [0:255 -1:255 32 0] 
r 37.195796629 _6_ RTR  --- 71 message 32 [0 ffffffff 0 800] ------- [0:255 -1:255 32 0] 
r 37.195796749 _9_ RTR  --- 71 message 32 [0 ffffffff 0 800] ------- [0:255 -1:255 32 0] 
r 37.195797218 _8_ RTR  --- 71 message 32 [0 ffffffff 0 800] ------- [0:255 -1:255 32 0] 
s 37.197161878 _9_ RTR  --- 75 message 32 [0 0 0 0] ------- [9:255 -1:255 32 0] 
r 37.198362027 _7_ RTR  --- 75 message 32 [0 ffffffff 9 800] ------- [9:255 -1:255 32 0] 
r 37.198362129 _6_ RTR  --- 75 message 32 [0 ffffffff 9 800] ------- [9:255 -1:255 32 0] 
r 37.198362241 _0_ RTR  --- 75 message 32 [0 ffffffff 9 800] ------- [9:255 -1:255 32 0] 
r 37.198362352 _8_ RTR  --- 75 message 32 [0 ffffffff 9 800] ------- [9:255 -1:255 32 0] 
r 37.198362641 _3_ RTR  --- 75 message 32 [0 ffffffff 9 800] ------- [9:255 -1:255 32 0] 
s 37.199676310 _1_ RTR  --- 72 message 56 [0 0 0 0] ------- [1:255 -1:255 32 0] 
s 37.200281871 _4_ RTR  --- 73 message 92 [0 0 0 0] ------- [4:255 -1:255 32 0] 
r 37.201208584 _4_ RTR  --- 72 message 56 [0 ffffffff 1 800] ------- [1:255 -1:255 32 0] 
r 37.201208806 _2_ RTR  --- 72 message 56 [0 ffffffff 1 800] ------- [1:255 -1:255 32 0] 
r 37.201209035 _3_ RTR  --- 72 message 56 [0 ffffffff 1 800] ------- [1:255 -1:255 32 0] 
r 37.203018857 _1_ RTR  --- 73 message 92 [0 ffffffff 4 800] ------- [4:255 -1:255 32 0] 
r 37.203019109 _2_ RTR  --- 73 message 92 [0 ffffffff 4 800] ------- [4:255 -1:255 32 0] 
s 37.203713427 _8_ RTR  --- 74 message 32 [0 0 0 0] ------- [8:255 -1:255 32 0] 
s 37.204523756 _6_ RTR  --- 76 message 32 [0 0 0 0] ------- [6:255 -1:255 32 0] 
r 37.204533805 _3_ RTR  --- 74 message 32 [0 ffffffff 8 800] ------- [8:255 -1:255 32 0] 
r 37.204533902 _9_ RTR  --- 74 message 32 [0 ffffffff 8 800] ------- [8:255 -1:255 32 0] 
r 37.204534024 _7_ RTR  --- 74 message 32 [0 ffffffff 8 800] ------- [8:255 -1:255 32 0] 
r 37.204534079 _6_ RTR  --- 74 message 32 [0 ffffffff 8 800] ------- [8:255 -1:255 32 0] 
r 37.204534091 _2_ RTR  --- 74 message 32 [0 ffffffff 8 800] ------- [8:255 -1:255 32 0] 
r 37.204534260 _0_ RTR  --- 74 message 32 [0 ffffffff 8 800] ------- [8:255 -1:255 32 0] 
r 37.205723870 _7_ RTR  --- 76 message 32 [0 ffffffff 6 800] ------- [6:255 -1:255 32 0] 
r 37.205723999 _0_ RTR  --- 76 message 32 [0 ffffffff 6 800] ------- [6:255 -1:255 32 0] 
r 37.205724006 _9_ RTR  --- 76 message 32 [0 ffffffff 6 800] ------- [6:255 -1:255 32 0] 
r 37.205724408 _8_ RTR  --- 76 message 32 [0 ffffffff 6 800] ------- [6:255 -1:255 32 0] 
s 38.195183703 _9_ RTR  --- 80 message 32 [0 0 0 0] ------- [9:255 -1:255 32 0] 
r 38.196023810 _7_ RTR  --- 80 message 32 [0 ffffffff 9 800] ------- [9:255 -1:255 32 0] 
r 38.196023920 _6_ RTR  --- 80 message 32 [0 ffffffff 9 800] ------- [9:255 -1:255 32 0] 
r 38.196024013 _0_ RTR  --- 80 message 32 [0 ffffffff 9 800] ------- [9:255 -1:255 32 0] 
r 38.196024226 _8_ RTR  --- 80 message 32 [0 ffffffff 9 800] ------- [9:255 -1:255 32 0] 
r 38.196024508 _3_ RTR  --- 80 message 32 [0 ffffffff 9 800] ------- [9:255 -1:255 32 0] 
s 38.198954886 _1_ RTR  --- 78 message 44 [0 0 0 0] ------- [1:255 -1:255 32 0] 
r 38.200211160 _4_ RTR  --- 78 message 44 [0 ffffffff 1 800] ------- [1:255 -1:255 32 0] 
r 38.200211382 _2_ RTR  --- 78 message 44 [0 ffffffff 1 800] ------- [1:255 -1:255 32 0] 
r 38.200211611 _3_ RTR  --- 78 message 44 [0 ffffffff 1 800] ------- [1:255 -1:255 32 0] 
s 38.201558370 _4_ RTR  --- 81 message 32 [0 0 0 0] ------- [4:255 -1:255 32 0] 
s 38.202196676 _8_ RTR  --- 79 message 32 [0 0 0 0] ------- [8:255 -1:255 32 0] 
r 38.202658643 _1_ RTR  --- 81 message 32 [0 ffffffff 4 800] ------- [4:255 -1:255 32 0] 
r 38.202658895 _2_ RTR  --- 81 message 32 [0 ffffffff 4 800] ------- [4:255 -1:255 32 0] 
r 38.203993933 _3_ RTR  --- 79 message 32 [0 ffffffff 8 800] ------- [8:255 -1:255 32 0] 
r 38.203994079 _9_ RTR  --- 79 message 32 [0 ffffffff 8 800] ------- [8:255 -1:255 32 0] 
r 38.203994152 _7_ RTR  --- 79 message 32 [0 ffffffff 8 800] ------- [8:255 -1:255 32 0] 
r 38.203994208 _6_ RTR  --- 79 message 32 [0 ffffffff 8 800] ------- [8:255 -1:255 32 0] 
r 38.203994219 _2_ RTR  --- 79 message 32 [0 ffffffff 8 800] ------- [8:255 -1:255 32 0] 
r 38.203994385 _0_ RTR  --- 79 message 32 [0 ffffffff 8 800] ------- [8:255 -1:255 32 0] 
s 38.450011926 _6_ RTR  --- 82 message 56 [0 0 0 0] ------- [6:255 -1:255 32 0] 
r 38.451364040 _7_ RTR  --- 82 message 56 [0 ffffffff 6 800] ------- [6:255 -1:255 32 0] 
r 38.451364136 _9_ RTR  --- 82 message 56 [0 ffffffff 6 800] ------- [6:255 -1:255 32 0] 
r 38.451364165 _0_ RTR  --- 82 message 56 [0 ffffffff 6 800] ------- [6:255 -1:255 32 0] 
r 38.451364578 _8_ RTR  --- 82 message 56 [0 ffffffff 6 800] ------- [6:255 -1:255 32 0] 
s 39.032241550 _7_ RTR  --- 84 message 44 [0 0 0 0] ------- [7:255 -1:255 32 0] 
s 39.033073209 _3_ RTR  --- 83 message 32 [0 0 0 0] ------- [3:255 -1:255 32 0] 
r 39.033697631 _9_ RTR  --- 84 message 44 [0 ffffffff 7 800] ------- [7:255 -1:255 32 0] 
r 39.033697664 _6_ RTR  --- 84 message 44 [0 ffffffff 7 800] ------- [7:255 -1:255 32 0] 