V -t * -v 1.0a5 -a 0
W -t * -x 500 -y 500
A -t * -n 1 -p 0 -o 0x7fffffff -c 30 -a 1
A -t * -h 1 -m 1073741823 -s 0
n -t 0.000000 -s 1 -x 489.300797 -y 178.487184 -U 0.000000 -V 0.000000 -T 0.000000
n -t 0.000000 -s 2 -x 334.098834 -y 199.106976 -U 0.000000 -V 0.000000 -T 0.000000
n -t 0.000000 -s 3 -x 390.953743 -y 259.559963 -U 0.000000 -V 0.000000 -T 0.000000
n -t 0.000000 -s 4 -x 424.302380 -y 250.093357 -U 0.000000 -V 0.000000 -T 0.000000
n -t 0.000000 -s 5 -x 319.044205 -y 175.958071 -U 0.000000 -V 0.000000 -T 0.000000
n -t 0.000000 -s 6 -x 327.302974 -y 481.085744 -U 0.000000 -V 0.000000 -T 0.000000
n -t 0.000000 -s 7 -x 108.099057 -y 320.853632 -U 0.000000 -V 0.000000 -T 0.000000
n -t 0.000000 -s 8 -x 86.986759 -y 486.451015 -U 0.000000 -V 0.000000 -T 0.000000
n -t 0.000000 -s 0 -x 0.000000 -y 0.000000 -U 0.000000 -V 0.000000 -T 0.000000
n -t 0.000000 -s 9 -x 300.000000 -y 450.000000 -U -0.000000 -V 0.000000 -T 0.000000
+ -t 0.036772557 -s 1 -d -1 -p message -e 32 -c 2 -a 0 -i 0 -k RTR 
- -t 0.036772557 -s 1 -d -1 -p message -e 32 -c 2 -a 0 -i 0 -k RTR
h -t 0.036772557 -s 1 -d -1 -p message -e 32 -c 2 -a 0 -i 0 -k RTR
r -t 0.038132879 -s 4 -d -1 -p message -e 32 -c 2 -a 0 -i 0 -k RTR
r -t 0.038132982 -s 3 -d -1 -p message -e 32 -c 2 -a 0 -i 0 -k RTR
r -t 0.038133079 -s 2 -d -1 -p message -e 32 -c 2 -a 0 -i 0 -k RTR
r -t 0.038133124 -s 5 -d -1 -p message -e 32 -c 2 -a 0 -i 0 -k RTR
+ -t 0.177383425 -s 2 -d -1 -p message -e 32 -c 2 -a 0 -i 1 -k RTR 
- -t 0.177383425 -s 2 -d -1 -p message -e 32 -c 2 -a 0 -i 1 -k RTR
h -t 0.177383425 -s 2 -d -1 -p message -e 32 -c 2 -a 0 -i 1 -k RTR
r -t 0.178363517 -s 5 -d -1 -p message -e 32 -c 2 -a 0 -i 1 -k RTR
r -t 0.178363702 -s 3 -d -1 -p message -e 32 -c 2 -a 0 -i 1 -k RTR
r -t 0.178363771 -s 4 -d -1 -p message -e 32 -c 2 -a 0 -i 1 -k RTR
r -t 0.178363947 -s 1 -d -1 -p message -e 32 -c 2 -a 0 -i 1 -k RTR
+ -t 0.470144892 -s 7 -d -1 -p message -e 32 -c 2 -a 0 -i 2 -k RTR 
- -t 0.470144892 -s 7 -d -1 -p message -e 32 -c 2 -a 0 -i 2 -k RTR
h -t 0.470144892 -s 7 -d -1 -p message -e 32 -c 2 -a 0 -i 2 -k RTR
r -t 0.471165449 -s 8 -d -1 -p message -e 32 -c 2 -a 0 -i 2 -k RTR
r -t 0.471165663 -s 9 -d -1 -p message -e 32 -c 2 -a 0 -i 2 -k RTR
+ -t 0.622244972 -s 9 -d -1 -p message -e 32 -c 2 -a 0 -i 3 -k RTR 
- -t 0.622244972 -s 9 -d -1 -p message -e 32 -c 2 -a 0 -i 3 -k RTR
h -t 0.622244972 -s 9 -d -1 -p message -e 32 -c 2 -a 0 -i 3 -k RTR
r -t 0.623505110 -s 6 -d -1 -p message -e 32 -c 2 -a 0 -i 3 -k RTR
r -t 0.623505676 -s 3 -d -1 -p message -e 32 -c 2 -a 0 -i 3 -k RTR
r -t 0.623505693 -s 8 -d -1 -p message -e 32 -c 2 -a 0 -i 3 -k RTR
r -t 0.623505743 -s 7 -d -1 -p message -e 32 -c 2 -a 0 -i 3 -k RTR
r -t 0.623505757 -s 4 -d -1 -p message -e 32 -c 2 -a 0 -i 3 -k RTR
+ -t 0.634544216 -s 5 -d -1 -p message -e 32 -c 2 -a 0 -i 4 -k RTR 
- -t 0.634544216 -s 5 -d -1 -p message -e 32 -c 2 -a 0 -i 4 -k RTR
h -t 0.634544216 -s 5 -d -1 -p message -e 32 -c 2 -a 0 -i 4 -k RTR
r -t 0.635904308 -s 2 -d -1 -p message -e 32 -c 2 -a 0 -i 4 -k RTR
r -t 0.635904584 -s 3 -d -1 -p message -e 32 -c 2 -a 0 -i 4 -k RTR
r -t 0.635904645 -s 4 -d -1 -p message -e 32 -c 2 -a 0 -i 4 -k RTR
r -t 0.635904784 -s 1 -d -1 -p message -e 32 -c 2 -a 0 -i 4 -k RTR
+ -t 0.890857830 -s 3 -d -1 -p message -e 32 -c 2 -a 0 -i 5 -k RTR 
- -t 0.890857830 -s 3 -d -1 -p message -e 32 -c 2 -a 0 -i 5 -k RTR
h -t 0.890857830 -s 3 -d -1 -p message -e 32 -c 2 -a 0 -i 5 -k RTR
r -t 0.892037945 -s 4 -d -1 -p message -e 32 -c 2 -a 0 -i 5 -k RTR
r -t 0.892038106 -s 2 -d -1 -p message -e 32 -c 2 -a 0 -i 5 -k RTR
r -t 0.892038197 -s 5 -d -1 -p message -e 32 -c 2 -a 0 -i 5 -k RTR
r -t 0.892038254 -s 1 -d -1 -p message -e 32 -c 2 -a 0 -i 5 -k RTR
r -t 0.892038533 -s 9 -d -1 -p message -e 32 -c 2 -a 0 -i 5 -k RTR
r -t 0.892038598 -s 6 -d -1 -p message -e 32 -c 2 -a 0 -i 5 -k RTR
+ -t 1.000000000 -s 0 -d -1 -p tcp -e 40 -c 2 -a 0 -i 6 -k AGT 
- -t 1.000000000 -s 0 -d -1 -p tcp -e 40 -c 2 -a 0 -i 6 -k AGT
h -t 1.000000000 -s 0 -d -1 -p tcp -e 40 -c 2 -a 0 -i 6 -k AGT
+ -t 1.115816623 -s 0 -d -1 -p message -e 32 -c 2 -a 0 -i 7 -k RTR 
- -t 1.115816623 -s 0 -d -1 -p message -e 32 -c 2 -a 0 -i 7 -k RTR
h -t 1.115816623 -s 0 -d -1 -p message -e 32 -c 2 -a 0 -i 7 -k RTR
+ -t 1.286604722 -s 8 -d -1 -p message -e 32 -c 2 -a 0 -i 8 -k RTR 
- -t 1.286604722 -s 8 -d -1 -p message -e 32 -c 2 -a 0 -i 8 -k RTR
h -t 1.286604722 -s 8 -d -1 -p message -e 32 -c 2 -a 0 -i 8 -k RTR
r -t 1.287625278 -s 7 -d -1 -p message -e 32 -c 2 -a 0 -i 8 -k RTR
r -t 1.287625442 -s 9 -d -1 -p message -e 32 -c 2 -a 0 -i 8 -k RTR
r -t 1.287625523 -s 6 -d -1 -p message -e 32 -c 2 -a 0 -i 8 -k RTR
+ -t 1.598894933 -s 4 -d -1 -p message -e 32 -c 2 -a 0 -i 9 -k RTR 
- -t 1.598894933 -s 4 -d -1 -p message -e 32 -c 2 -a 0 -i 9 -k RTR
h -t 1.598894933 -s 4 -d -1 -p message -e 32 -c 2 -a 0 -i 9 -k RTR
r -t 1.600055049 -s 3 -d -1 -p message -e 32 -c 2 -a 0 -i 9 -k RTR
r -t 1.600055256 -s 1 -d -1 -p message -e 32 -c 2 -a 0 -i 9 -k RTR
r -t 1.600055279 -s 2 -d -1 -p message -e 32 -c 2 -a 0 -i 9 -k RTR
r -t 1.600055362 -s 5 -d -1 -p message -e 32 -c 2 -a 0 -i 9 -k RTR
r -t 1.600055718 -s 9 -d -1 -p message -e 32 -c 2 -a 0 -i 9 -k RTR
+ -t 1.634183138 -s 6 -d -1 -p message -e 32 -c 2 -a 0 -i 10 -k RTR 
- -t 1.634183138 -s 6 -d -1 -p message -e 32 -c 2 -a 0 -i 10 -k RTR
h -t 1.634183138 -s 6 -d -1 -p message -e 32 -c 2 -a 0 -i 10 -k RTR
r -t 1.635283276 -s 9 -d -1 -p message -e 32 -c 2 -a 0 -i 10 -k RTR
r -t 1.635283906 -s 3 -d -1 -p message -e 32 -c 2 -a 0 -i 10 -k RTR
r -t 1.635283939 -s 8 -d -1 -p message -e 32 -c 2 -a 0 -i 10 -k RTR
+ -t 4.000000000 -s 0 -d -1 -p tcp -e 40 -c 2 -a 0 -i 11 -k AGT 
- -t 4.000000000 -s 0 -d -1 -p tcp -e 40 -c 2 -a 0 -i 11 -k AGT
h -t 4.000000000 -s 0 -d -1 -p tcp -e 40 -c 2 -a 0 -i 11 -k AGT
+ -t 10.000000000 -s 0 -d -1 -p tcp -e 40 -c 2 -a 0 -i 12 -k AGT 
- -t 10.000000000 -s 0 -d -1 -p tcp -e 40 -c 2 -a 0 -i 12 -k AGT
h -t 10.000000000 -s 0 -d -1 -p tcp -e 40 -c 2 -a 0 -i 12 -k AGT
+ -t 11.899402816 -s 1 -d -1 -p message -e 32 -c 2 -a 0 -i 13 -k RTR 
- -t 11.899402816 -s 1 -d -1 -p message -e 32 -c 2 -a 0 -i 13 -k RTR
h -t 11.899402816 -s 1 -d -1 -p message -e 32 -c 2 -a 0 -i 13 -k RTR
r -t 11.900543138 -s 4 -d -1 -p message -e 32 -c 2 -a 0 -i 13 -k RTR
r -t 11.900543241 -s 3 -d -1 -p message -e 32 -c 2 -a 0 -i 13 -k RTR
r -t 11.900543338 -s 2 -d -1 -p message -e 32 -c 2 -a 0 -i 13 -k RTR
r -t 11.900543383 -s 5 -d -1 -p message -e 32 -c 2 -a 0 -i 13 -k RTR
+ -t 12.178639276 -s 3 -d -1 -p message -e 32 -c 2 -a 0 -i 19 -k RTR 
- -t 12.178639276 -s 3 -d -1 -p message -e 32 -c 2 -a 0 -i 19 -k RTR
h -t 12.178639276 -s 3 -d -1 -p message -e 32 -c 2 -a 0 -i 19 -k RTR
r -t 12.179459392 -s 4 -d -1 -p message -e 32 -c 2 -a 0 -i 19 -k RTR
r -t 12.179459553 -s 2 -d -1 -p message -e 32 -c 2 -a 0 -i 19 -k RTR
r -t 12.179459644 -s 5 -d -1 -p message -e 32 -c 2 -a 0 -i 19 -k RTR
r -t 12.179459701 -s 1 -d -1 -p message -e 32 -c 2 -a 0 -i 19 -k RTR
r -t 12.179459980 -s 9 -d -1 -p message -e 32 -c 2 -a 0 -i 19 -k RTR
r -t 12.179460045 -s 6 -d -1 -p message -e 32 -c 2 -a 0 -i 19 -k RTR
+ -t 12.181636940 -s 4 -d -1 -p message -e 32 -c 2 -a 0 -i 20 -k RTR 
- -t 12.181636940 -s 4 -d -1 -p message -e 32 -c 2 -a 0 -i 20 -k RTR
h -t 12.181636940 -s 4 -d -1 -p message -e 32 -c 2 -a 0 -i 20 -k RTR
+ -t 12.182620390 -s 5 -d -1 -p message -e 32 -c 2 -a 0 -i 18 -k RTR 
- -t 12.182620390 -s 5 -d -1 -p message -e 32 -c 2 -a 0 -i 18 -k RTR
h -t 12.182620390 -s 5 -d -1 -p message -e 32 -c 2 -a 0 -i 18 -k RTR
r -t 12.182757056 -s 3 -d -1 -p message -e 32 -c 2 -a 0 -i 20 -k RTR
r -t 12.182757263 -s 1 -d -1 -p message -e 32 -c 2 -a 0 -i 20 -k RTR
r -t 12.182757286 -s 2 -d -1 -p message -e 32 -c 2 -a 0 -i 20 -k RTR
r -t 12.182757370 -s 5 -d -1 -p message -e 32 -c 2 -a 0 -i 20 -k RTR
r -t 12.182757725 -s 9 -d -1 -p message -e 32 -c 2 -a 0 -i 20 -k RTR
r -t 12.183807462 -s 2 -d -1 -p message -e 32 -c 2 -a 0 -i 18 -k RTR
r -t 12.183807737 -s 3 -d -1 -p message -e 32 -c 2 -a 0 -i 18 -k RTR
r -t 12.183807799 -s 4 -d -1 -p message -e 32 -c 2 -a 0 -i 18 -k RTR
r -t 12.183807937 -s 1 -d -1 -p message -e 32 -c 2 -a 0 -i 18 -k RTR
+ -t 12.472952727 -s 8 -d -1 -p message -e 32 -c 2 -a 0 -i 21 -k RTR 
- -t 12.472952727 -s 8 -d -1 -p message -e 32 -c 2 -a 0 -i 21 -k RTR
h -t 12.472952727 -s 8 -d -1 -p message -e 32 -c 2 -a 0 -i 21 -k RTR
r -t 12.474073284 -s 7 -d -1 -p message -e 32 -c 2 -a 0 -i 21 -k RTR
r -t 12.474073448 -s 9 -d -1 -p message -e 32 -c 2 -a 0 -i 21 -k RTR
r -t 12.474073528 -s 6 -d -1 -p message -e 32 -c 2 -a 0 -i 21 -k RTR
+ -t 12.480925730 -s 9 -d -1 -p message -e 32 -c 2 -a 0 -i 22 -k RTR 
- -t 12.480925730 -s 9 -d -1 -p message -e 32 -c 2 -a 0 -i 22 -k RTR
h -t 12.480925730 -s 9 -d -1 -p message -e 32 -c 2 -a 0 -i 22 -k RTR
r -t 12.482205868 -s 6 -d -1 -p message -e 32 -c 2 -a 0 -i 22 -k RTR
r -t 12.482206434 -s 3 -d -1 -p message -e 32 -c 2 -a 0 -i 22 -k RTR
r -t 12.482206451 -s 8 -d -1 -p message -e 32 -c 2 -a 0 -i 22 -k RTR
r -t 12.482206501 -s 7 -d -1 -p message -e 32 -c 2 -a 0 -i 22 -k RTR
r -t 12.482206515 -s 4 -d -1 -p message -e 32 -c 2 -a 0 -i 22 -k RTR
+ -t 12.628834096 -s 6 -d -1 -p message -e 32 -c 2 -a 0 -i 23 -k RTR 
- -t 12.628834096 -s 6 -d -1 -p message -e 32 -c 2 -a 0 -i 23 -k RTR
h -t 12.628834096 -s 6 -d -1 -p message -e 32 -c 2 -a 0 -i 23 -k RTR
r -t 12.629734234 -s 9 -d -1 -p message -e 32 -c 2 -a 0 -i 23 -k RTR
r -t 12.629734864 -s 3 -d -1 -p message -e 32 -c 2 -a 0 -i 23 -k RTR
r -t 12.629734897 -s 8 -d -1 -p message -e 32 -c 2 -a 0 -i 23 -k RTR
+ -t 12.630856655 -s 7 -d -1 -p message -e 32 -c 2 -a 0 -i 24 -k RTR 
- -t 12.630856655 -s 7 -d -1 -p message -e 32 -c 2 -a 0 -i 24 -k RTR
h -t 12.630856655 -s 7 -d -1 -p message -e 32 -c 2 -a 0 -i 24 -k RTR
r -t 12.631877211 -s 8 -d -1 -p message -e 32 -c 2 -a 0 -i 24 -k RTR
r -t 12.631877426 -s 9 -d -1 -p message -e 32 -c 2 -a 0 -i 24 -k RTR
+ -t 12.643184726 -s 2 -d -1 -p message -e 32 -c 2 -a 0 -i 25 -k RTR 
- -t 12.643184726 -s 2 -d -1 -p message -e 32 -c 2 -a 0 -i 25 -k RTR
h -t 12.643184726 -s 2 -d -1 -p message -e 32 -c 2 -a 0 -i 25 -k RTR
r -t 12.644604818 -s 5 -d -1 -p message -e 32 -c 2 -a 0 -i 25 -k RTR
r -t 12.644605002 -s 3 -d -1 -p message -e 32 -c 2 -a 0 -i 25 -k RTR
r -t 12.644605071 -s 4 -d -1 -p message -e 32 -c 2 -a 0 -i 25 -k RTR
r -t 12.644605248 -s 1 -d -1 -p message -e 32 -c 2 -a 0 -i 25 -k RTR
+ -t 12.778614107 -s 0 -d -1 -p message -e 32 -c 2 -a 0 -i 26 -k RTR 
- -t 12.778614107 -s 0 -d -1 -p message -e 32 -c 2 -a 0 -i 26 -k RTR
h -t 12.778614107 -s 0 -d -1 -p message -e 32 -c 2 -a 0 -i 26 -k RTR
+ -t 12.896997999 -s 4 -d -1 -p message -e 68 -c 2 -a 0 -i 27 -k RTR 
- -t 12.896997999 -s 4 -d -1 -p message -e 68 -c 2 -a 0 -i 27 -k RTR
h -t 12.896997999 -s 4 -d -1 -p message -e 68 -c 2 -a 0 -i 27 -k RTR
r -t 12.898406114 -s 3 -d -1 -p message -e 68 -c 2 -a 0 -i 27 -k RTR
r -t 12.898406321 -s 1 -d -1 -p message -e 68 -c 2 -a 0 -i 27 -k RTR
r -t 12.898406344 -s 2 -d -1 -p message -e 68 -c 2 -a 0 -i 27 -k RTR
r -t 12.898406428 -s 5 -d -1 -p message -e 68 -c 2 -a 0 -i 27 -k RTR
r -t 12.898406783 -s 9 -d -1 -p message -e 68 -c 2 -a 0 -i 27 -k RTR
+ -t 12.900589855 -s 1 -d -1 -p message -e 56 -c 2 -a 0 -i 28 -k RTR 
- -t 12.900589855 -s 1 -d -1 -p message -e 56 -c 2 -a 0 -i 28 -k RTR
h -t 12.900589855 -s 1 -d -1 -p message -e 56 -c 2 -a 0 -i 28 -k RTR
r -t 12.901942178 -s 4 -d -1 -p message -e 56 -c 2 -a 0 -i 28 -k RTR
r -t 12.901942280 -s 3 -d -1 -p message -e 56 -c 2 -a 0 -i 28 -k RTR
r -t 12.901942377 -s 2 -d -1 -p message -e 56 -c 2 -a 0 -i 28 -k RTR
r -t 12.901942423 -s 5 -d -1 -p message -e 56 -c 2 -a 0 -i 28 -k RTR
+ -t 13.178365263 -s 5 -d -1 -p message -e 44 -c 2 -a 0 -i 29 -k RTR 
- -t 13.178365263 -s 5 -d -1 -p message -e 44 -c 2 -a 0 -i 29 -k RTR
h -t 13.178365263 -s 5 -d -1 -p message -e 44 -c 2 -a 0 -i 29 -k RTR
+ -t 13.179198001 -s 3 -d -1 -p message -e 56 -c 2 -a 0 -i 30 -k RTR 
- -t 13.179198001 -s 3 -d -1 -p message -e 56 -c 2 -a 0 -i 30 -k RTR
h -t 13.179198001 -s 3 -d -1 -p message -e 56 -c 2 -a 0 -i 30 -k RTR
r -t 13.179461355 -s 2 -d -1 -p message -e 44 -c 2 -a 0 -i 29 -k RTR
r -t 13.179461630 -s 3 -d -1 -p message -e 44 -c 2 -a 0 -i 29 -k RTR
r -t 13.179461692 -s 4 -d -1 -p message -e 44 -c 2 -a 0 -i 29 -k RTR
r -t 13.179461830 -s 1 -d -1 -p message -e 44 -c 2 -a 0 -i 29 -k RTR
r -t 13.180583746 -s 4 -d -1 -p message -e 56 -c 2 -a 0 -i 30 -k RTR
r -t 13.180583907 -s 2 -d -1 -p message -e 56 -c 2 -a 0 -i 30 -k RTR
r -t 13.180583998 -s 5 -d -1 -p message -e 56 -c 2 -a 0 -i 30 -k RTR
r -t 13.180584055 -s 1 -d -1 -p message -e 56 -c 2 -a 0 -i 30 -k RTR
r -t 13.180584334 -s 9 -d -1 -p message -e 56 -c 2 -a 0 -i 30 -k RTR
r -t 13.180584398 -s 6 -d -1 -p message -e 56 -c 2 -a 0 -i 30 -k RTR
+ -t 13.474215553 -s 9 -d -1 -p message -e 56 -c 2 -a 0 -i 32 -k RTR 
- -t 13.474215553 -s 9 -d -1 -p message -e 56 -c 2 -a 0 -i 32 -k RTR
h -t 13.474215553 -s 9 -d -1 -p message -e 56 -c 2 -a 0 -i 32 -k RTR
+ -t 13.474817922 -s 8 -d -1 -p message -e 44 -c 2 -a 0 -i 31 -k RTR 
- -t 13.474817922 -s 8 -d -1 -p message -e 44 -c 2 -a 0 -i 31 -k RTR
h -t 13.474817922 -s 8 -d -1 -p message -e 44 -c 2 -a 0 -i 31 -k RTR
r -t 13.475447691 -s 6 -d -1 -p message -e 56 -c 2 -a 0 -i 32 -k RTR
r -t 13.475448257 -s 3 -d -1 -p message -e 56 -c 2 -a 0 -i 32 -k RTR
r -t 13.475448273 -s 8 -d -1 -p message -e 56 -c 2 -a 0 -i 32 -k RTR
r -t 13.475448324 -s 7 -d -1 -p message -e 56 -c 2 -a 0 -i 32 -k RTR
r -t 13.475448338 -s 4 -d -1 -p message -e 56 -c 2 -a 0 -i 32 -k RTR
r -t 13.476314830 -s 7 -d -1 -p message -e 44 -c 2 -a 0 -i 31 -k RTR
r -t 13.476314994 -s 9 -d -1 -p message -e 44 -c 2 -a 0 -i 31 -k RTR
r -t 13.476315075 -s 6 -d -1 -p message -e 44 -c 2 -a 0 -i 31 -k RTR
+ -t 13.625217934 -s 7 -d -1 -p message -e 44 -c 2 -a 0 -i 34 -k RTR 
- -t 13.625217934 -s 7 -d -1 -p message -e 44 -c 2 -a 0 -i 34 -k RTR
h -t 13.625217934 -s 7 -d -1 -p message -e 44 -c 2 -a 0 -i 34 -k RTR
r -t 13.626634490 -s 8 -d -1 -p message -e 44 -c 2 -a 0 -i 34 -k RTR
r -t 13.626634705 -s 9 -d -1 -p message -e 44 -c 2 -a 0 -i 34 -k RTR
+ -t 13.631563429 -s 6 -d -1 -p message -e 56 -c 2 -a 0 -i 33 -k RTR 
- -t 13.631563429 -s 6 -d -1 -p message -e 56 -c 2 -a 0 -i 33 -k RTR
h -t 13.631563429 -s 6 -d -1 -p message -e 56 -c 2 -a 0 -i 33 -k RTR
r -t 13.632735567 -s 9 -d -1 -p message -e 56 -c 2 -a 0 -i 33 -k RTR
r -t 13.632736197 -s 3 -d -1 -p message -e 56 -c 2 -a 0 -i 33 -k RTR
r -t 13.632736230 -s 8 -d -1 -p message -e 56 -c 2 -a 0 -i 33 -k RTR
+ -t 13.641111777 -s 2 -d -1 -p message -e 44 -c 2 -a 0 -i 35 -k RTR 
- -t 13.641111777 -s 2 -d -1 -p message -e 44 -c 2 -a 0 -i 35 -k RTR
h -t 13.641111777 -s 2 -d -1 -p message -e 44 -c 2 -a 0 -i 35 -k RTR
r -t 13.642127869 -s 5 -d -1 -p message -e 44 -c 2 -a 0 -i 35 -k RTR
r -t 13.642128054 -s 3 -d -1 -p message -e 44 -c 2 -a 0 -i 35 -k RTR
r -t 13.642128122 -s 4 -d -1 -p message -e 44 -c 2 -a 0 -i 35 -k RTR
r -t 13.642128299 -s 1 -d -1 -p message -e 44 -c 2 -a 0 -i 35 -k RTR
+ -t 13.813251068 -s 9 -d -1 -p message -e 80 -c 2 -a 0 -i 36 -k RTR 
- -t 13.813251068 -s 9 -d -1 -p message -e 80 -c 2 -a 0 -i 36 -k RTR
h -t 13.813251068 -s 9 -d -1 -p message -e 80 -c 2 -a 0 -i 36 -k RTR
r -t 13.815055206 -s 6 -d -1 -p message -e 80 -c 2 -a 0 -i 36 -k RTR
r -t 13.815055772 -s 3 -d -1 -p message -e 80 -c 2 -a 0 -i 36 -k RTR
r -t 13.815055788 -s 8 -d -1 -p message -e 80 -c 2 -a 0 -i 36 -k RTR
r -t 13.815055839 -s 7 -d -1 -p message -e 80 -c 2 -a 0 -i 36 -k RTR
r -t 13.815055853 -s 4 -d -1 -p message -e 80 -c 2 -a 0 -i 36 -k RTR
+ -t 13.890033947 -s 4 -d -1 -p message -e 32 -c 2 -a 0 -i 37 -k RTR 
- -t 13.890033947 -s 4 -d -1 -p message -e 32 -c 2 -a 0 -i 37 -k RTR
h -t 13.890033947 -s 4 -d -1 -p message -e 32 -c 2 -a 0 -i 37 -k RTR
r -t 13.890874062 -s 3 -d -1 -p message -e 32 -c 2 -a 0 -i 37 -k RTR
r -t 13.890874269 -s 1 -d -1 -p message -e 32 -c 2 -a 0 -i 37 -k RTR
r -t 13.890874292 -s 2 -d -1 -p message -e 32 -c 2 -a 0 -i 37 -k RTR
r -t 13.890874376 -s 5 -d -1 -p message -e 32 -c 2 -a 0 -i 37 -k RTR
r -t 13.890874731 -s 9 -d -1 -p message -e 32 -c 2 -a 0 -i 37 -k RTR
+ -t 13.898258645 -s 1 -d -1 -p message -e 56 -c 2 -a 0 -i 38 -k RTR 
- -t 13.898258645 -s 1 -d -1 -p message -e 56 -c 2 -a 0 -i 38 -k RTR
h -t 13.898258645 -s 1 -d -1 -p message -e 56 -c 2 -a 0 -i 38 -k RTR
r -t 13.899290967 -s 4 -d -1 -p message -e 56 -c 2 -a 0 -i 38 -k RTR
r -t 13.899291069 -s 3 -d -1 -p message -e 56 -c 2 -a 0 -i 38 -k RTR
r -t 13.899291166 -s 2 -d -1 -p message -e 56 -c 2 -a 0 -i 38 -k RTR
r -t 13.899291212 -s 5 -d -1 -p message -e 56 -c 2 -a 0 -i 38 -k RTR
+ -t 14.183211443 -s 3 -d -1 -p message -e 56 -c 2 -a 0 -i 40 -k RTR 
- -t 14.183211443 -s 3 -d -1 -p message -e 56 -c 2 -a 0 -i 40 -k RTR
h -t 14.183211443 -s 3 -d -1 -p message -e 56 -c 2 -a 0 -i 40 -k RTR
r -t 14.184603558 -s 4 -d -1 -p message -e 56 -c 2 -a 0 -i 40 -k RTR
r -t 14.184603719 -s 2 -d -1 -p message -e 56 -c 2 -a 0 -i 40 -k RTR
r -t 14.184603810 -s 5 -d -1 -p message -e 56 -c 2 -a 0 -i 40 -k RTR
r -t 14.184603868 -s 1 -d -1 -p message -e 56 -c 2 -a 0 -i 40 -k RTR
r -t 14.184604146 -s 9 -d -1 -p message -e 56 -c 2 -a 0 -i 40 -k RTR
r -t 14.184604211 -s 6 -d -1 -p message -e 56 -c 2 -a 0 -i 40 -k RTR
+ -t 14.185720052 -s 5 -d -1 -p message -e 44 -c 2 -a 0 -i 39 -k RTR 
- -t 14.185720052 -s 5 -d -1 -p message -e 44 -c 2 -a 0 -i 39 -k RTR
h -t 14.185720052 -s 5 -d -1 -p message -e 44 -c 2 -a 0 -i 39 -k RTR
r -t 14.186956144 -s 2 -d -1 -p message -e 44 -c 2 -a 0 -i 39 -k RTR
r -t 14.186956420 -s 3 -d -1 -p message -e 44 -c 2 -a 0 -i 39 -k RTR
r -t 14.186956482 -s 4 -d -1 -p message -e 44 -c 2 -a 0 -i 39 -k RTR
r -t 14.186956620 -s 1 -d -1 -p message -e 44 -c 2 -a 0 -i 39 -k RTR
+ -t 14.473520855 -s 8 -d -1 -p message -e 44 -c 2 -a 0 -i 41 -k RTR 
- -t 14.473520855 -s 8 -d -1 -p message -e 44 -c 2 -a 0 -i 41 -k RTR
h -t 14.473520855 -s 8 -d -1 -p message -e 44 -c 2 -a 0 -i 41 -k RTR
r -t 14.474617412 -s 7 -d -1 -p message -e 44 -c 2 -a 0 -i 41 -k RTR
r -t 14.474617576 -s 9 -d -1 -p message -e 44 -c 2 -a 0 -i 41 -k RTR
r -t 14.474617657 -s 6 -d -1 -p message -e 44 -c 2 -a 0 -i 41 -k RTR
+ -t 14.658937656 -s 2 -d -1 -p message -e 56 -c 2 -a 0 -i 42 -k RTR 
- -t 14.658937656 -s 2 -d -1 -p message -e 56 -c 2 -a 0 -i 42 -k RTR
h -t 14.658937656 -s 2 -d -1 -p message -e 56 -c 2 -a 0 -i 42 -k RTR
r -t 14.660049748 -s 5 -d -1 -p message -e 56 -c 2 -a 0 -i 42 -k RTR
r -t 14.660049933 -s 3 -d -1 -p message -e 56 -c 2 -a 0 -i 42 -k RTR
r -t 14.660050001 -s 4 -d -1 -p message -e 56 -c 2 -a 0 -i 42 -k RTR
r -t 14.660050178 -s 1 -d -1 -p message -e 56 -c 2 -a 0 -i 42 -k RTR
+ -t 14.674673608 -s 3 -d -1 -p message -e 56 -c 2 -a 0 -i 43 -k RTR 
- -t 14.674673608 -s 3 -d -1 -p message -e 56 -c 2 -a 0 -i 43 -k RTR
h -t 14.674673608 -s 3 -d -1 -p message -e 56 -c 2 -a 0 -i 43 -k RTR
r -t 14.676265723 -s 4 -d -1 -p message -e 56 -c 2 -a 0 -i 43 -k RTR
r -t 14.676265885 -s 2 -d -1 -p message -e 56 -c 2 -a 0 -i 43 -k RTR
r -t 14.676265976 -s 5 -d -1 -p message -e 56 -c 2 -a 0 -i 43 -k RTR
r -t 14.676266033 -s 1 -d -1 -p message -e 56 -c 2 -a 0 -i 43 -k RTR
r -t 14.676266311 -s 9 -d -1 -p message -e 56 -c 2 -a 0 -i 43 -k RTR
r -t 14.676266376 -s 6 -d -1 -p message -e 56 -c 2 -a 0 -i 43 -k RTR
+ -t 14.753500960 -s 7 -d -1 -p message -e 44 -c 2 -a 0 -i 44 -k RTR 
- -t 14.753500960 -s 7 -d -1 -p message -e 44 -c 2 -a 0 -i 44 -k RTR
h -t 14.753500960 -s 7 -d -1 -p message -e 44 -c 2 -a 0 -i 44 -k RTR
r -t 14.754557516 -s 8 -d -1 -p message -e 44 -c 2 -a 0 -i 44 -k RTR
r -t 14.754557731 -s 9 -d -1 -p message -e 44 -c 2 -a 0 -i 44 -k RTR
+ -t 15.029686485 -s 5 -d -1 -p message -e 32 -c 2 -a 0 -i 46 -k RTR 
- -t 15.029686485 -s 5 -d -1 -p message -e 32 -c 2 -a 0 -i 46 -k RTR
h -t 15.029686485 -s 5 -d -1 -p message -e 32 -c 2 -a 0 -i 46 -k RTR
r -t 15.030686577 -s 2 -d -1 -p message -e 32 -c 2 -a 0 -i 46 -k RTR
r -t 15.030686853 -s 3 -d -1 -p message -e 32 -c 2 -a 0 -i 46 -k RTR
r -t 15.030686914 -s 4 -d -1 -p message -e 32 -c 2 -a 0 -i 46 -k RTR
r -t 15.030687053 -s 1 -d -1 -p message -e 32 -c 2 -a 0 -i 46 -k RTR
+ -t 15.399868897 -s 6 -d -1 -p message -e 44 -c 2 -a 0 -i 47 -k RTR 
- -t 15.399868897 -s 6 -d -1 -p message -e 44 -c 2 -a 0 -i 47 -k RTR
h -t 15.399868897 -s 6 -d -1 -p message -e 44 -c 2 -a 0 -i 47 -k RTR
r -t 15.401025035 -s 9 -d -1 -p message -e 44 -c 2 -a 0 -i 47 -k RTR
r -t 15.401025665 -s 3 -d -1 -p message -e 44 -c 2 -a 0 -i 47 -k RTR
r -t 15.401025698 -s 8 -d -1 -p message -e 44 -c 2 -a 0 -i 47 -k RTR
+ -t 16.081626179 -s 8 -d -1 -p message -e 32 -c 2 -a 0 -i 48 -k RTR 
- -t 16.081626179 -s 8 -d -1 -p message -e 32 -c 2 -a 0 -i 48 -k RTR
h -t 16.081626179 -s 8 -d -1 -p message -e 32 -c 2 -a 0 -i 48 -k RTR
r -t 16.082606735 -s 7 -d -1 -p message -e 32 -c 2 -a 0 -i 48 -k RTR
r -t 16.082606899 -s 9 -d -1 -p message -e 32 -c 2 -a 0 -i 48 -k RTR
r -t 16.082606980 -s 6 -d -1 -p message -e 32 -c 2 -a 0 -i 48 -k RTR
+ -t 22.000000000 -s 0 -d -1 -p tcp -e 40 -c 2 -a 0 -i 49 -k AGT 
- -t 22.000000000 -s 0 -d -1 -p tcp -e 40 -c 2 -a 0 -i 49 -k AGT
h -t 22.000000000 -s 0 -d -1 -p tcp -e 40 -c 2 -a 0 -i 49 -k AGT
+ -t 24.184640278 -s 9 -d -1 -p message -e 44 -c 2 -a 0 -i 50 -k RTR 
- -t 24.184640278 -s 9 -d -1 -p message -e 44 -c 2 -a 0 -i 50 -k RTR
h -t 24.184640278 -s 9 -d -1 -p message -e 44 -c 2 -a 0 -i 50 -k RTR
r -t 24.186096416 -s 6 -d -1 -p message -e 44 -c 2 -a 0 -i 50 -k RTR
r -t 24.186096982 -s 3 -d -1 -p message -e 44 -c 2 -a 0 -i 50 -k RTR
r -t 24.186096999 -s 8 -d -1 -p message -e 44 -c 2 -a 0 -i 50 -k RTR
r -t 24.186097050 -s 7 -d -1 -p message -e 44 -c 2 -a 0 -i 50 -k RTR
r -t 24.186097063 -s 4 -d -1 -p message -e 44 -c 2 -a 0 -i 50 -k RTR
+ -t 24.188269841 -s 6 -d -1 -p message -e 32 -c 2 -a 0 -i 51 -k RTR 
- -t 24.188269841 -s 6 -d -1 -p message -e 32 -c 2 -a 0 -i 51 -k RTR
h -t 24.188269841 -s 6 -d -1 -p message -e 32 -c 2 -a 0 -i 51 -k RTR
r -t 24.189129978 -s 9 -d -1 -p message -e 32 -c 2 -a 0 -i 51 -k RTR
r -t 24.189130609 -s 3 -d -1 -p message -e 32 -c 2 -a 0 -i 51 -k RTR
r -t 24.189130642 -s 8 -d -1 -p message -e 32 -c 2 -a 0 -i 51 -k RTR
+ -t 24.488779080 -s 4 -d -1 -p message -e 56 -c 2 -a 0 -i 53 -k RTR 
- -t 24.488779080 -s 4 -d -1 -p message -e 56 -c 2 -a 0 -i 53 -k RTR
h -t 24.488779080 -s 4 -d -1 -p message -e 56 -c 2 -a 0 -i 53 -k RTR
+ -t 24.488960209 -s 3 -d -1 -p message -e 80 -c 2 -a 0 -i 52 -k RTR 
- -t 24.488960209 -s 3 -d -1 -p message -e 80 -c 2 -a 0 -i 52 -k RTR
h -t 24.488960209 -s 3 -d -1 -p message -e 80 -c 2 -a 0 -i 52 -k RTR
r -t 24.490464325 -s 4 -d -1 -p message -e 80 -c 2 -a 0 -i 52 -k RTR
r -t 24.490464486 -s 2 -d -1 -p message -e 80 -c 2 -a 0 -i 52 -k RTR
r -t 24.490464577 -s 5 -d -1 -p message -e 80 -c 2 -a 0 -i 52 -k RTR
r -t 24.490464634 -s 1 -d -1 -p message -e 80 -c 2 -a 0 -i 52 -k RTR
r -t 24.490464913 -s 9 -d -1 -p message -e 80 -c 2 -a 0 -i 52 -k RTR
r -t 24.490464978 -s 6 -d -1 -p message -e 80 -c 2 -a 0 -i 52 -k RTR
r -t 24.491506440 -s 3 -d -1 -p message -e 56 -c 2 -a 0 -i 53 -k RTR
r -t 24.491506647 -s 1 -d -1 -p message -e 56 -c 2 -a 0 -i 53 -k RTR
r -t 24.491506670 -s 2 -d -1 -p message -e 56 -c 2 -a 0 -i 53 -k RTR
r -t 24.491506754 -s 5 -d -1 -p message -e 56 -c 2 -a 0 -i 53 -k RTR
r -t 24.491507110 -s 9 -d -1 -p message -e 56 -c 2 -a 0 -i 53 -k RTR
+ -t 24.901210713 -s 5 -d -1 -p message -e 44 -c 2 -a 0 -i 56 -k RTR 
- -t 24.901210713 -s 5 -d -1 -p message -e 44 -c 2 -a 0 -i 56 -k RTR
h -t 24.901210713 -s 5 -d -1 -p message -e 44 -c 2 -a 0 -i 56 -k RTR
r -t 24.902626805 -s 2 -d -1 -p message -e 44 -c 2 -a 0 -i 56 -k RTR
r -t 24.902627081 -s 3 -d -1 -p message -e 44 -c 2 -a 0 -i 56 -k RTR
r -t 24.902627142 -s 4 -d -1 -p message -e 44 -c 2 -a 0 -i 56 -k RTR
r -t 24.902627281 -s 1 -d -1 -p message -e 44 -c 2 -a 0 -i 56 -k RTR
+ -t 24.904960738 -s 1 -d -1 -p message -e 32 -c 2 -a 0 -i 54 -k RTR 
- -t 24.904960738 -s 1 -d -1 -p message -e 32 -c 2 -a 0 -i 54 -k RTR
h -t 24.904960738 -s 1 -d -1 -p message -e 32 -c 2 -a 0 -i 54 -k RTR
r -t 24.906381060 -s 4 -d -1 -p message -e 32 -c 2 -a 0 -i 54 -k RTR
r -t 24.906381163 -s 3 -d -1 -p message -e 32 -c 2 -a 0 -i 54 -k RTR
r -t 24.906381260 -s 2 -d -1 -p message -e 32 -c 2 -a 0 -i 54 -k RTR
r -t 24.906381306 -s 5 -d -1 -p message -e 32 -c 2 -a 0 -i 54 -k RTR
+ -t 24.906951899 -s 2 -d -1 -p message -e 44 -c 2 -a 0 -i 55 -k RTR 
- -t 24.906951899 -s 2 -d -1 -p message -e 44 -c 2 -a 0 -i 55 -k RTR
h -t 24.906951899 -s 2 -d -1 -p message -e 44 -c 2 -a 0 -i 55 -k RTR
r -t 24.908427991 -s 5 -d -1 -p message -e 44 -c 2 -a 0 -i 55 -k RTR
r -t 24.908428176 -s 3 -d -1 -p message -e 44 -c 2 -a 0 -i 55 -k RTR
r -t 24.908428244 -s 4 -d -1 -p message -e 44 -c 2 -a 0 -i 55 -k RTR
r -t 24.908428421 -s 1 -d -1 -p message -e 44 -c 2 -a 0 -i 55 -k RTR
+ -t 25.181603419 -s 6 -d -1 -p message -e 56 -c 2 -a 0 -i 58 -k RTR 
- -t 25.181603419 -s 6 -d -1 -p message -e 56 -c 2 -a 0 -i 58 -k RTR
h -t 25.181603419 -s 6 -d -1 -p message -e 56 -c 2 -a 0 -i 58 -k RTR
r -t 25.182915556 -s 9 -d -1 -p message -e 56 -c 2 -a 0 -i 58 -k RTR
r -t 25.182916187 -s 3 -d -1 -p message -e 56 -c 2 -a 0 -i 58 -k RTR
r -t 25.182916220 -s 8 -d -1 -p message -e 56 -c 2 -a 0 -i 58 -k RTR
+ -t 25.183051321 -s 9 -d -1 -p message -e 56 -c 2 -a 0 -i 57 -k RTR 
- -t 25.183051321 -s 9 -d -1 -p message -e 56 -c 2 -a 0 -i 57 -k RTR
h -t 25.183051321 -s 9 -d -1 -p message -e 56 -c 2 -a 0 -i 57 -k RTR
r -t 25.184183459 -s 6 -d -1 -p message -e 56 -c 2 -a 0 -i 57 -k RTR
r -t 25.184184025 -s 3 -d -1 -p message -e 56 -c 2 -a 0 -i 57 -k RTR
r -t 25.184184042 -s 8 -d -1 -p message -e 56 -c 2 -a 0 -i 57 -k RTR
r -t 25.184184092 -s 7 -d -1 -p message -e 56 -c 2 -a 0 -i 57 -k RTR
r -t 25.184184106 -s 4 -d -1 -p message -e 56 -c 2 -a 0 -i 57 -k RTR
+ -t 25.479751887 -s 8 -d -1 -p message -e 56 -c 2 -a 0 -i 59 -k RTR 
- -t 25.479751887 -s 8 -d -1 -p message -e 56 -c 2 -a 0 -i 59 -k RTR
h -t 25.479751887 -s 8 -d -1 -p message -e 56 -c 2 -a 0 -i 59 -k RTR
r -t 25.480844443 -s 7 -d -1 -p message -e 56 -c 2 -a 0 -i 59 -k RTR
r -t 25.480844607 -s 9 -d -1 -p message -e 56 -c 2 -a 0 -i 59 -k RTR
r -t 25.480844688 -s 6 -d -1 -p message -e 56 -c 2 -a 0 -i 59 -k RTR
+ -t 25.483504849 -s 3 -d -1 -p message -e 44 -c 2 -a 0 -i 61 -k RTR 
- -t 25.483504849 -s 3 -d -1 -p message -e 44 -c 2 -a 0 -i 61 -k RTR
h -t 25.483504849 -s 3 -d -1 -p message -e 44 -c 2 -a 0 -i 61 -k RTR
+ -t 25.483748778 -s 7 -d -1 -p message -e 44 -c 2 -a 0 -i 60 -k RTR 
- -t 25.483748778 -s 7 -d -1 -p message -e 44 -c 2 -a 0 -i 60 -k RTR
h -t 25.483748778 -s 7 -d -1 -p message -e 44 -c 2 -a 0 -i 60 -k RTR
r -t 25.484765335 -s 8 -d -1 -p message -e 44 -c 2 -a 0 -i 60 -k RTR
r -t 25.484765549 -s 9 -d -1 -p message -e 44 -c 2 -a 0 -i 60 -k RTR
r -t 25.486015858 -s 4 -d -1 -p message -e 44 -c 2 -a 0 -i 61 -k RTR
r -t 25.486016019 -s 2 -d -1 -p message -e 44 -c 2 -a 0 -i 61 -k RTR
r -t 25.486016110 -s 5 -d -1 -p message -e 44 -c 2 -a 0 -i 61 -k RTR
r -t 25.486016168 -s 1 -d -1 -p message -e 44 -c 2 -a 0 -i 61 -k RTR
r -t 25.486016446 -s 9 -d -1 -p message -e 44 -c 2 -a 0 -i 61 -k RTR
r -t 25.486016511 -s 6 -d -1 -p message -e 44 -c 2 -a 0 -i 61 -k RTR
+ -t 25.486376809 -s 4 -d -1 -p message -e 92 -c 2 -a 0 -i 62 -k RTR 
- -t 25.486376809 -s 4 -d -1 -p message -e 92 -c 2 -a 0 -i 62 -k RTR
h -t 25.486376809 -s 4 -d -1 -p message -e 92 -c 2 -a 0 -i 62 -k RTR
r -t 25.487716924 -s 3 -d -1 -p message -e 92 -c 2 -a 0 -i 62 -k RTR
r -t 25.487717131 -s 1 -d -1 -p message -e 92 -c 2 -a 0 -i 62 -k RTR
r -t 25.487717154 -s 2 -d -1 -p message -e 92 -c 2 -a 0 -i 62 -k RTR
r -t 25.487717238 -s 5 -d -1 -p message -e 92 -c 2 -a 0 -i 62 -k RTR
r -t 25.487717593 -s 9 -d -1 -p message -e 92 -c 2 -a 0 -i 62 -k RTR
+ -t 26.050476381 -s 2 -d -1 -p message -e 56 -c 2 -a 0 -i 63 -k RTR 
- -t 26.050476381 -s 2 -d -1 -p message -e 56 -c 2 -a 0 -i 63 -k RTR
h -t 26.050476381 -s 2 -d -1 -p message -e 56 -c 2 -a 0 -i 63 -k RTR
r -t 26.052008473 -s 5 -d -1 -p message -e 56 -c 2 -a 0 -i 63 -k RTR
r -t 26.052008658 -s 3 -d -1 -p message -e 56 -c 2 -a 0 -i 63 -k RTR
r -t 26.052008726 -s 4 -d -1 -p message -e 56 -c 2 -a 0 -i 63 -k RTR
r -t 26.052008903 -s 1 -d -1 -p message -e 56 -c 2 -a 0 -i 63 -k RTR
+ -t 26.182157600 -s 6 -d -1 -p message -e 32 -c 2 -a 0 -i 64 -k RTR 
- -t 26.182157600 -s 6 -d -1 -p message -e 32 -c 2 -a 0 -i 64 -k RTR
h -t 26.182157600 -s 6 -d -1 -p message -e 32 -c 2 -a 0 -i 64 -k RTR
r -t 26.183017738 -s 9 -d -1 -p message -e 32 -c 2 -a 0 -i 64 -k RTR
r -t 26.183018368 -s 3 -d -1 -p message -e 32 -c 2 -a 0 -i 64 -k RTR
r -t 26.183018401 -s 8 -d -1 -p message -e 32 -c 2 -a 0 -i 64 -k RTR
+ -t 26.188922621 -s 5 -d -1 -p message -e 44 -c 2 -a 0 -i 65 -k RTR 
- -t 26.188922621 -s 5 -d -1 -p message -e 44 -c 2 -a 0 -i 65 -k RTR
h -t 26.188922621 -s 5 -d -1 -p message -e 44 -c 2 -a 0 -i 65 -k RTR
+ -t 26.189478297 -s 1 -d -1 -p message -e 44 -c 2 -a 0 -i 66 -k RTR 
- -t 26.189478297 -s 1 -d -1 -p message -e 44 -c 2 -a 0 -i 66 -k RTR
h -t 26.189478297 -s 1 -d -1 -p message -e 44 -c 2 -a 0 -i 66 -k RTR
r -t 26.189998713 -s 2 -d -1 -p message -e 44 -c 2 -a 0 -i 65 -k RTR
r -t 26.189998988 -s 3 -d -1 -p message -e 44 -c 2 -a 0 -i 65 -k RTR
r -t 26.189999050 -s 4 -d -1 -p message -e 44 -c 2 -a 0 -i 65 -k RTR
r -t 26.189999188 -s 1 -d -1 -p message -e 44 -c 2 -a 0 -i 65 -k RTR
r -t 26.191205511 -s 4 -d -1 -p message -e 44 -c 2 -a 0 -i 66 -k RTR
r -t 26.191205613 -s 3 -d -1 -p message -e 44 -c 2 -a 0 -i 66 -k RTR
r -t 26.191205710 -s 2 -d -1 -p message -e 44 -c 2 -a 0 -i 66 -k RTR
r -t 26.191205756 -s 5 -d -1 -p message -e 44 -c 2 -a 0 -i 66 -k RTR
+ -t 26.436104772 -s 1 -d -1 -p message -e 56 -c 2 -a 0 -i 67 -k RTR 
- -t 26.436104772 -s 1 -d -1 -p message -e 56 -c 2 -a 0 -i 67 -k RTR
h -t 26.436104772 -s 1 -d -1 -p message -e 56 -c 2 -a 0 -i 67 -k RTR
r -t 26.437577095 -s 4 -d -1 -p message -e 56 -c 2 -a 0 -i 67 -k RTR
r -t 26.437577197 -s 3 -d -1 -p message -e 56 -c 2 -a 0 -i 67 -k RTR
r -t 26.437577294 -s 2 -d -1 -p message -e 56 -c 2 -a 0 -i 67 -k RTR
r -t 26.437577340 -s 5 -d -1 -p message -e 56 -c 2 -a 0 -i 67 -k RTR
+ -t 26.475846480 -s 7 -d -1 -p message -e 44 -c 2 -a 0 -i 68 -k RTR 
- -t 26.475846480 -s 7 -d -1 -p message -e 44 -c 2 -a 0 -i 68 -k RTR