M 0.00000 1 (489.30, 178.49, 0.00), (489.30, 178.49), 0.00
M 0.00000 2 (334.10, 199.11, 0.00), (334.10, 199.11), 0.00
M 0.00000 3 (390.95, 259.56, 0.00), (390.95, 259.56), 0.00
M 0.00000 4 (424.30, 250.09, 0.00), (424.30, 250.09), 0.00
M 0.00000 5 (319.04, 175.96, 0.00), (319.04, 175.96), 0.00
M 0.00000 6 (327.30, 481.09, 0.00), (327.30, 481.09), 0.00
M 0.00000 7 (108.10, 320.85, 0.00), (108.10, 320.85), 0.00
M 0.00000 8 (86.99, 486.45, 0.00), (86.99, 486.45), 0.00
M 0.00000 0 (0.00, 0.00, 0.00), (86.99, 486.45), 0.00
M 0.00000 9 (300.00, 450.00, 0.00), (86.99, 486.45), 0.00
s -t 0.036772557 -Hs 1 -Hd -1 -Ni 1 -Nx 489.30 -Ny 178.49 -Nz 0.00 -Ne -1.000000 -Nl RTR -Nw --- -Ma 0 -Md 0 -Ms 0 -Mt 0 -Is 1.255 -Id -1.255 -It message -Il 32 -If 0 -Ii 0 -Iv 32 
r -t 0.038132879 -Hs 4 -Hd -1 -Ni 4 -Nx 424.30 -Ny 250.09 -Nz 0.00 -Ne -1.000000 -Nl RTR -Nw --- -Ma 0 -Md ffffffff -Ms 1 -Mt 800 -Is 1.255 -Id -1.255 -It message -Il 32 -If 0 -Ii 0 -Iv 32 
r -t 0.038132982 -Hs 3 -Hd -1 -Ni 3 -Nx 390.95 -Ny 259.56 -Nz 0.00 -Ne -1.000000 -Nl RTR -Nw --- -Ma 0 -Md ffffffff -Ms 1 -Mt 800 -Is 1.255 -Id -1.255 -It message -Il 32 -If 0 -Ii 0 -Iv 32 
r -t 0.038133079 -Hs 2 -Hd -1 -Ni 2 -Nx 334.10 -Ny 199.11 -Nz 0.00 -Ne -1.000000 -Nl RTR -Nw --- -Ma 0 -Md ffffffff -Ms 1 -Mt 800 -Is 1.255 -Id -1.255 -It message -Il 32 -If 0 -Ii 0 -Iv 32 
r -t 0.038133124 -Hs 5 -Hd -1 -Ni 5 -Nx 319.04 -Ny 175.96 -Nz 0.00 -Ne -1.000000 -Nl RTR -Nw --- -Ma 0 -Md ffffffff -Ms 1 -Mt 800 -Is 1.255 -Id -1.255 -It message -Il 32 -If 0 -Ii 0 -Iv 32 
s -t 0.177383425 -Hs 2 -Hd -1 -Ni 2 -Nx 334.10 -Ny 199.11 -Nz 0.00 -Ne -1.000000 -Nl RTR -Nw --- -Ma 0 -Md 0 -Ms 0 -Mt 0 -Is 2.255 -Id -1.255 -It message -Il 32 -If 0 -Ii 1 -Iv 32 
r -t 0.178363517 -Hs 5 -Hd -1 -Ni 5 -Nx 319.04 -Ny 175.96 -Nz 0.00 -Ne -1.000000 -Nl RTR -Nw --- -Ma 0 -Md ffffffff -Ms 2 -Mt 800 -Is 2.255 -Id -1.255 -It message -Il 32 -If 0 -Ii 1 -Iv 32 
r -t 0.178363702 -Hs 3 -Hd -1 -Ni 3 -Nx 390.95 -Ny 259.56 -Nz 0.00 -Ne -1.000000 -Nl RTR -Nw --- -Ma 0 -Md ffffffff -Ms 2 -Mt 800 -Is 2.255 -Id -1.255 -It message -Il 32 -If 0 -Ii 1 -Iv 32 
r -t 0.178363771 -Hs 4 -Hd -1 -Ni 4 -Nx 424.30 -Ny 250.09 -Nz 0.00 -Ne -1.000000 -Nl RTR -Nw --- -Ma 0 -Md ffffffff -Ms 2 -Mt 800 -Is 2.255 -Id -1.255 -It message -Il 32 -If 0 -Ii 1 -Iv 32 
r -t 0.178363947 -Hs 1 -Hd -1 -Ni 1 -Nx 489.30 -Ny 178.49 -Nz 0.00 -Ne -1.000000 -Nl RTR -Nw --- -Ma 0 -Md ffffffff -Ms 2 -Mt 800 -Is 2.255 -Id -1.255 -It message -Il 32 -If 0 -Ii 1 -Iv 32 
s -t 0.470144892 -Hs 7 -Hd -1 -Ni 7 -Nx 108.10 -Ny 320.85 -Nz 0.00 -Ne -1.000000 -Nl RTR -Nw --- -Ma 0 -Md 0 -Ms 0 -Mt 0 -Is 7.255 -Id -1.255 -It message -Il 32 -If 0 -Ii 2 -Iv 32 
r -t 0.471165449 -Hs 8 -Hd -1 -Ni 8 -Nx 86.99 -Ny 486.45 -Nz 0.00 -Ne -1.000000 -Nl RTR -Nw --- -Ma 0 -Md ffffffff -Ms 7 -Mt 800 -Is 7.255 -Id -1.255 -It message -Il 32 -If 0 -Ii 2 -Iv 32 
r -t 0.471165663 -Hs 9 -Hd -1 -Ni 9 -Nx 300.00 -Ny 450.00 -Nz 0.00 -Ne -1.000000 -Nl RTR -Nw --- -Ma 0 -Md ffffffff -Ms 7 -Mt 800 -Is 7.255 -Id -1.255 -It message -Il 32 -If 0 -Ii 2 -Iv 32 
s -t 0.622244972 -Hs 9 -Hd -1 -Ni 9 -Nx 300.00 -Ny 450.00 -Nz 0.00 -Ne -1.000000 -Nl RTR -Nw --- -Ma 0 -Md 0 -Ms 0 -Mt 0 -Is 9.255 -Id -1.255 -It message -Il 32 -If 0 -Ii 3 -Iv 32 
r -t 0.623505110 -Hs 6 -Hd -1 -Ni 6 -Nx 327.30 -Ny 481.09 -Nz 0.00 -Ne -1.000000 -Nl RTR -Nw --- -Ma 0 -Md ffffffff -Ms 9 -Mt 800 -Is 9.255 -Id -1.255 -It message -Il 32 -If 0 -Ii 3 -Iv 32 
r -t 0.623505676 -Hs 3 -Hd -1 -Ni 3 -Nx 390.95 -Ny 259.56 -Nz 0.00 -Ne -1.000000 -Nl RTR -Nw --- -Ma 0 -Md ffffffff -Ms 9 -Mt 800 -Is 9.255 -Id -1.255 -It message -Il 32 -If 0 -Ii 3 -Iv 32 
r -t 0.623505693 -Hs 8 -Hd -1 -Ni 8 -Nx 86.99 -Ny 486.45 -Nz 0.00 -Ne -1.000000 -Nl RTR -Nw --- -Ma 0 -Md ffffffff -Ms 9 -Mt 800 -Is 9.255 -Id -1.255 -It message -Il 32 -If 0 -Ii 3 -Iv 32 
r -t 0.623505743 -Hs 7 -Hd -1 -Ni 7 -Nx 108.10 -Ny 320.85 -Nz 0.00 -Ne -1.000000 -Nl RTR -Nw --- -Ma 0 -Md ffffffff -Ms 9 -Mt 800 -Is 9.255 -Id -1.255 -It message -Il 32 -If 0 -Ii 3 -Iv 32 
r -t 0.623505757 -Hs 4 -Hd -1 -Ni 4 -Nx 424.30 -Ny 250.09 -Nz 0.00 -Ne -1.000000 -Nl RTR -Nw --- -Ma 0 -Md ffffffff -Ms 9 -Mt 800 -Is 9.255 -Id -1.255 -It message -Il 32 -If 0 -Ii 3 -Iv 32 
s -t 0.634544216 -Hs 5 -Hd -1 -Ni 5 -Nx 319.04 -Ny 175.96 -Nz 0.00 -Ne -1.000000 -Nl RTR -Nw --- -Ma 0 -Md 0 -Ms 0 -Mt 0 -Is 5.255 -Id -1.255 -It message -Il 32 -If 0 -Ii 4 -Iv 32 
r -t 0.635904308 -Hs 2 -Hd -1 -Ni 2 -Nx 334.10 -Ny 199.11 -Nz 0.00 -Ne -1.000000 -Nl RTR -Nw --- -Ma 0 -Md ffffffff -Ms 5 -Mt 800 -Is 5.255 -Id -1.255 -It message -Il 32 -If 0 -Ii 4 -Iv 32 
r -t 0.635904584 -Hs 3 -Hd -1 -Ni 3 -Nx 390.95 -Ny 259.56 -Nz 0.00 -Ne -1.000000 -Nl RTR -Nw --- -Ma 0 -Md ffffffff -Ms 5 -Mt 800 -Is 5.255 -Id -1.255 -It message -Il 32 -If 0 -Ii 4 -Iv 32 
r -t 0.635904645 -Hs 4 -Hd -1 -Ni 4 -Nx 424.30 -Ny 250.09 -Nz 0.00 -Ne -1.000000 -Nl RTR -Nw --- -Ma 0 -Md ffffffff -Ms 5 -Mt 800 -Is 5.255 -Id -1.255 -It message -Il 32 -If 0 -Ii 4 -Iv 32 
r -t 0.635904784 -Hs 1 -Hd -1 -Ni 1 -Nx 489.30 -Ny 178.49 -Nz 0.00 -Ne -1.000000 -Nl RTR -Nw --- -Ma 0 -Md ffffffff -Ms 5 -Mt 800 -Is 5.255 -Id -1.255 -It message -Il 32 -If 0 -Ii 4 -Iv 32 
s -t 0.890857830 -Hs 3 -Hd -1 -Ni 3 -Nx 390.95 -Ny 259.56 -Nz 0.00 -Ne -1.000000 -Nl RTR -Nw --- -Ma 0 -Md 0 -Ms 0 -Mt 0 -Is 3.255 -Id -1.255 -It message -Il 32 -If 0 -Ii 5 -Iv 32 
r -t 0.892037945 -Hs 4 -Hd -1 -Ni 4 -Nx 424.30 -Ny 250.09 -Nz 0.00 -Ne -1.000000 -Nl RTR -Nw --- -Ma 0 -Md ffffffff -Ms 3 -Mt 800 -Is 3.255 -Id -1.255 -It message -Il 32 -If 0 -Ii 5 -Iv 32 
r -t 0.892038106 -Hs 2 -Hd -1 -Ni 2 -Nx 334.10 -Ny 199.11 -Nz 0.00 -Ne -1.000000 -Nl RTR -Nw --- -Ma 0 -Md ffffffff -Ms 3 -Mt 800 -Is 3.255 -Id -1.255 -It message -Il 32 -If 0 -Ii 5 -Iv 32 
r -t 0.892038197 -Hs 5 -Hd -1 -Ni 5 -Nx 319.04 -Ny 175.96 -Nz 0.00 -Ne -1.000000 -Nl RTR -Nw --- -Ma 0 -Md ffffffff -Ms 3 -Mt 800 -Is 3.255 -Id -1.255 -It message -Il 32 -If 0 -Ii 5 -Iv 32 
r -t 0.892038254 -Hs 1 -Hd -1 -Ni 1 -Nx 489.30 -Ny 178.49 -Nz 0.00 -Ne -1.000000 -Nl RTR -Nw --- -Ma 0 -Md ffffffff -Ms 3 -Mt 800 -Is 3.255 -Id -1.255 -It message -Il 32 -If 0 -Ii 5 -Iv 32 
r -t 0.892038533 -Hs 9 -Hd -1 -Ni 9 -Nx 300.00 -Ny 450.00 -Nz 0.00 -Ne -1.000000 -Nl RTR -Nw --- -Ma 0 -Md ffffffff -Ms 3 -Mt 800 -Is 3.255 -Id -1.255 -It message -Il 32 -If 0 -Ii 5 -Iv 32 
r -t 0.892038598 -Hs 6 -Hd -1 -Ni 6 -Nx 327.30 -Ny 481.09 -Nz 0.00 -Ne -1.000000 -Nl RTR -Nw --- -Ma 0 -Md ffffffff -Ms 3 -Mt 800 -Is 3.255 -Id -1.255 -It message -Il 32 -If 0 -Ii 5 -Iv 32 
s -t 1.000000000 -Hs 0 -Hd -2 -Ni 0 -Nx 0.00 -Ny 0.00 -Nz 0.00 -Ne -1.000000 -Nl AGT -Nw --- -Ma 0 -Md 0 -Ms 0 -Mt 0 -Is 0.0 -Id 9.0 -It tcp -Il 40 -If 2 -Ii 6 -Iv 32 -Pn tcp -Ps 0 -Pa 0 -Pf 0 -Po 0 
r -t 1.000000000 -Hs 0 -Hd -2 -Ni 0 -Nx 0.00 -Ny 0.00 -Nz 0.00 -Ne -1.000000 -Nl RTR -Nw --- -Ma 0 -Md 0 -Ms 0 -Mt 0 -Is 0.0 -Id 9.0 -It tcp -Il 40 -If 2 -Ii 6 -Iv 32 -Pn tcp -Ps 0 -Pa 0 -Pf 0 -Po 0 
s -t 1.115816623 -Hs 0 -Hd -1 -Ni 0 -Nx 0.00 -Ny 0.00 -Nz 0.00 -Ne -1.000000 -Nl RTR -Nw --- -Ma 0 -Md 0 -Ms 0 -Mt 0 -Is 0.255 -Id -1.255 -It message -Il 32 -If 0 -Ii 7 -Iv 32 
s -t 1.286604722 -Hs 8 -Hd -1 -Ni 8 -Nx 86.99 -Ny 486.45 -Nz 0.00 -Ne -1.000000 -Nl RTR -Nw --- -Ma 0 -Md 0 -Ms 0 -Mt 0 -Is 8.255 -Id -1.255 -It message -Il 32 -If 0 -Ii 8 -Iv 32 
r -t 1.287625278 -Hs 7 -Hd -1 -Ni 7 -Nx 108.10 -Ny 320.85 -Nz 0.00 -Ne -1.000000 -Nl RTR -Nw --- -Ma 0 -Md ffffffff -Ms 8 -Mt 800 -Is 8.255 -Id -1.255 -It message -Il 32 -If 0 -Ii 8 -Iv 32 
r -t 1.287625442 -Hs 9 -Hd -1 -Ni 9 -Nx 300.00 -Ny 450.00 -Nz 0.00 -Ne -1.000000 -Nl RTR -Nw --- -Ma 0 -Md ffffffff -Ms 8 -Mt 800 -Is 8.255 -Id -1.255 -It message -Il 32 -If 0 -Ii 8 -Iv 32 
r -t 1.287625523 -Hs 6 -Hd -1 -Ni 6 -Nx 327.30 -Ny 481.09 -Nz 0.00 -Ne -1.000000 -Nl RTR -Nw --- -Ma 0 -Md ffffffff -Ms 8 -Mt 800 -Is 8.255 -Id -1.255 -It message -Il 32 -If 0 -Ii 8 -Iv 32 
s -t 1.598894933 -Hs 4 -Hd -1 -Ni 4 -Nx 424.30 -Ny 250.09 -Nz 0.00 -Ne -1.000000 -Nl RTR -Nw --- -Ma 0 -Md 0 -Ms 0 -Mt 0 -Is 4.255 -Id -1.255 -It message -Il 32 -If 0 -Ii 9 -Iv 32 
r -t 1.600055049 -Hs 3 -Hd -1 -Ni 3 -Nx 390.95 -Ny 259.56 -Nz 0.00 -Ne -1.000000 -Nl RTR -Nw --- -Ma 0 -Md ffffffff -Ms 4 -Mt 800 -Is 4.255 -Id -1.255 -It message -Il 32 -If 0 -Ii 9 -Iv 32 
r -t 1.600055256 -Hs 1 -Hd -1 -Ni 1 -Nx 489.30 -Ny 178.49 -Nz 0.00 -Ne -1.000000 -Nl RTR -Nw --- -Ma 0 -Md ffffffff -Ms 4 -Mt 800 -Is 4.255 -Id -1.255 -It message -Il 32 -If 0 -Ii 9 -Iv 32 
r -t 1.600055279 -Hs 2 -Hd -1 -Ni 2 -Nx 334.10 -Ny 199.11 -Nz 0.00 -Ne -1.000000 -Nl RTR -Nw --- -Ma 0 -Md ffffffff -Ms 4 -Mt 800 -Is 4.255 -Id -1.255 -It message -Il 32 -If 0 -Ii 9 -Iv 32 
r -t 1.600055362 -Hs 5 -Hd -1 -Ni 5 -Nx 319.04 -Ny 175.96 -Nz 0.00 -Ne -1.000000 -Nl RTR -Nw --- -Ma 0 -Md ffffffff -Ms 4 -Mt 800 -Is 4.255 -Id -1.255 -It message -Il 32 -If 0 -Ii 9 -Iv 32 
r -t 1.600055718 -Hs 9 -Hd -1 -Ni 9 -Nx 300.00 -Ny 450.00 -Nz 0.00 -Ne -1.000000 -Nl RTR -Nw --- -Ma 0 -Md ffffffff -Ms 4 -Mt 800 -Is 4.255 -Id -1.255 -It message -Il 32 -If 0 -Ii 9 -Iv 32 
s -t 1.634183138 -Hs 6 -Hd -1 -Ni 6 -Nx 327.30 -Ny 481.09 -Nz 0.00 -Ne -1.000000 -Nl RTR -Nw --- -Ma 0 -Md 0 -Ms 0 -Mt 0 -Is 6.255 -Id -1.255 -It message -Il 32 -If 0 -Ii 10 -Iv 32 
r -t 1.635283276 -Hs 9 -Hd -1 -Ni 9 -Nx 300.00 -Ny 450.00 -Nz 0.00 -Ne -1.000000 -Nl RTR -Nw --- -Ma 0 -Md ffffffff -Ms 6 -Mt 800 -Is 6.255 -Id -1.255 -It message -Il 32 -If 0 -Ii 10 -Iv 32 
r -t 1.635283906 -Hs 3 -Hd -1 -Ni 3 -Nx 390.95 -Ny 259.56 -Nz 0.00 -Ne -1.000000 -Nl RTR -Nw --- -Ma 0 -Md ffffffff -Ms 6 -Mt 800 -Is 6.255 -Id -1.255 -It message -Il 32 -If 0 -Ii 10 -Iv 32 
r -t 1.635283939 -Hs 8 -Hd -1 -Ni 8 -Nx 86.99 -Ny 486.45 -Nz 0.00 -Ne -1.000000 -Nl RTR -Nw --- -Ma 0 -Md ffffffff -Ms 6 -Mt 800 -Is 6.255 -Id -1.255 -It message -Il 32 -If 0 -Ii 10 -Iv 32 
s -t 4.000000000 -Hs 0 -Hd -2 -Ni 0 -Nx 0.00 -Ny 0.00 -Nz 0.00 -Ne -1.000000 -Nl AGT -Nw --- -Ma 0 -Md 0 -Ms 0 -Mt 0 -Is 0.0 -Id 9.0 -It tcp -Il 40 -If 2 -Ii 11 -Iv 32 -Pn tcp -Ps 0 -Pa 0 -Pf 0 -Po 0 
r -t 4.000000000 -Hs 0 -Hd -2 -Ni 0 -Nx 0.00 -Ny 0.00 -Nz 0.00 -Ne -1.000000 -Nl RTR -Nw --- -Ma 0 -Md 0 -Ms 0 -Mt 0 -Is 0.0 -Id 9.0 -It tcp -Il 40 -If 2 -Ii 11 -Iv 32 -Pn tcp -Ps 0 -Pa 0 -Pf 0 -Po 0 
s -t 10.000000000 -Hs 0 -Hd -2 -Ni 0 -Nx 0.00 -Ny 0.00 -Nz 0.00 -Ne -1.000000 -Nl AGT -Nw --- -Ma 0 -Md 0 -Ms 0 -Mt 0 -Is 0.0 -Id 9.0 -It tcp -Il 40 -If 2 -Ii 12 -Iv 32 -Pn tcp -Ps 0 -Pa 0 -Pf 0 -Po 0 
r -t 10.000000000 -Hs 0 -Hd -2 -Ni 0 -Nx 0.00 -Ny 0.00 -Nz 0.00 -Ne -1.000000 -Nl RTR -Nw --- -Ma 0 -Md 0 -Ms 0 -Mt 0 -Is 0.0 -Id 9.0 -It tcp -Il 40 -If 2 -Ii 12 -Iv 32 -Pn tcp -Ps 0 -Pa 0 -Pf 0 -Po 0 
s -t 11.899402816 -Hs 1 -Hd -1 -Ni 1 -Nx 489.30 -Ny 178.49 -Nz 0.00 -Ne -1.000000 -Nl RTR -Nw --- -Ma 0 -Md 0 -Ms 0 -Mt 0 -Is 1.255 -Id -1.255 -It message -Il 32 -If 0 -Ii 13 -Iv 32 
r -t 11.900543138 -Hs 4 -Hd -1 -Ni 4 -Nx 424.30 -Ny 250.09 -Nz 0.00 -Ne -1.000000 -Nl RTR -Nw --- -Ma 0 -Md ffffffff -Ms 1 -Mt 800 -Is 1.255 -Id -1.255 -It message -Il 32 -If 0 -Ii 13 -Iv 32 
r -t 11.900543241 -Hs 3 -Hd -1 -Ni 3 -Nx 390.95 -Ny 259.56 -Nz 0.00 -Ne -1.000000 -Nl RTR -Nw --- -Ma 0 -Md ffffffff -Ms 1 -Mt 800 -Is 1.255 -Id -1.255 -It message -Il 32 -If 0 -Ii 13 -Iv 32 
r -t 11.900543338 -Hs 2 -Hd -1 -Ni 2 -Nx 334.10 -Ny 199.11 -Nz 0.00 -Ne -1.000000 -Nl RTR -Nw --- -Ma 0 -Md ffffffff -Ms 1 -Mt 800 -Is 1.255 -Id -1.255 -It message -Il 32 -If 0 -Ii 13 -Iv 32 
r -t 11.900543383 -Hs 5 -Hd -1 -Ni 5 -Nx 319.04 -Ny 175.96 -Nz 0.00 -Ne -1.000000 -Nl RTR -Nw --- -Ma 0 -Md ffffffff -Ms 1 -Mt 800 -Is 1.255 -Id -1.255 -It message -Il 32 -If 0 -Ii 13 -Iv 32 
s -t 12.178639276 -Hs 3 -Hd -1 -Ni 3 -Nx 390.95 -Ny 259.56 -Nz 0.00 -Ne -1.000000 -Nl RTR -Nw --- -Ma 0 -Md 0 -Ms 0 -Mt 0 -Is 3.255 -Id -1.255 -It message -Il 32 -If 0 -Ii 19 -Iv 32 
r -t 12.179459392 -Hs 4 -Hd -1 -Ni 4 -Nx 424.30 -Ny 250.09 -Nz 0.00 -Ne -1.000000 -Nl RTR -Nw --- -Ma 0 -Md ffffffff -Ms 3 -Mt 800 -Is 3.255 -Id -1.255 -It message -Il 32 -If 0 -Ii 19 -Iv 32 
r -t 12.179459553 -Hs 2 -Hd -1 -Ni 2 -Nx 334.10 -Ny 199.11 -Nz 0.00 -Ne -1.000000 -Nl RTR -Nw --- -Ma 0 -Md ffffffff -Ms 3 -Mt 800 -Is 3.255 -Id -1.255 -It message -Il 32 -If 0 -Ii 19 -Iv 32 
r -t 12.179459644 -Hs 5 -Hd -1 -Ni 5 -Nx 319.04 -Ny 175.96 -Nz 0.00 -Ne -1.000000 -Nl RTR -Nw --- -Ma 0 -Md ffffffff -Ms 3 -Mt 800 -Is 3.255 -Id -1.255 -It message -Il 32 -If 0 -Ii 19 -Iv 32 
r -t 12.179459701 -Hs 1 -Hd -1 -Ni 1 -Nx 489.30 -Ny 178.49 -Nz 0.00 -Ne -1.000000 -Nl RTR -Nw --- -Ma 0 -Md ffffffff -Ms 3 -Mt 800 -Is 3.255 -Id -1.255 -It message -Il 32 -If 0 -Ii 19 -Iv 32 
r -t 12.179459980 -Hs 9 -Hd -1 -Ni 9 -Nx 300.00 -Ny 450.00 -Nz 0.00 -Ne -1.000000 -Nl RTR -Nw --- -Ma 0 -Md ffffffff -Ms 3 -Mt 800 -Is 3.255 -Id -1.255 -It message -Il 32 -If 0 -Ii 19 -Iv 32 
r -t 12.179460045 -Hs 6 -Hd -1 -Ni 6 -Nx 327.30 -Ny 481.09 -Nz 0.00 -Ne -1.000000 -Nl RTR -Nw --- -Ma 0 -Md ffffffff -Ms 3 -Mt 800 -Is 3.255 -Id -1.255 -It message -Il 32 -If 0 -Ii 19 -Iv 32 
s -t 12.181636940 -Hs 4 -Hd -1 -Ni 4 -Nx 424.30 -Ny 250.09 -Nz 0.00 -Ne -1.000000 -Nl RTR -Nw --- -Ma 0 -Md 0 -Ms 0 -Mt 0 -Is 4.255 -Id -1.255 -It message -Il 32 -If 0 -Ii 20 -Iv 32 
s -t 12.182620390 -Hs 5 -Hd -1 -Ni 5 -Nx 319.04 -Ny 175.96 -Nz 0.00 -Ne -1.000000 -Nl RTR -Nw --- -Ma 0 -Md 0 -Ms 0 -Mt 0 -Is 5.255 -Id -1.255 -It message -Il 32 -If 0 -Ii 18 -Iv 32 
r -t 12.182757056 -Hs 3 -Hd -1 -Ni 3 -Nx 390.95 -Ny 259.56 -Nz 0.00 -Ne -1.000000 -Nl RTR -Nw --- -Ma 0 -Md ffffffff -Ms 4 -Mt 800 -Is 4.255 -Id -1.255 -It message -Il 32 -If 0 -Ii 20 -Iv 32 
r -t 12.182757263 -Hs 1 -Hd -1 -Ni 1 -Nx 489.30 -Ny 178.49 -Nz 0.00 -Ne -1.000000 -Nl RTR -Nw --- -Ma 0 -Md ffffffff -Ms 4 -Mt 800 -Is 4.255 -Id -1.255 -It message -Il 32 -If 0 -Ii 20 -Iv 32 
r -t 12.182757286 -Hs 2 -Hd -1 -Ni 2 -Nx 334.10 -Ny 199.11 -Nz 0.00 -Ne -1.000000 -Nl RTR -Nw --- -Ma 0 -Md ffffffff -Ms 4 -Mt 800 -Is 4.255 -Id -1.255 -It message -Il 32 -If 0 -Ii 20 -Iv 32 
r -t 12.182757370 -Hs 5 -Hd -1 -Ni 5 -Nx 319.04 -Ny 175.96 -Nz 0.00 -Ne -1.000000 -Nl RTR -Nw --- -Ma 0 -Md ffffffff -Ms 4 -Mt 800 -Is 4.255 -Id -1.255 -It message -Il 32 -If 0 -Ii 20 -Iv 32 
r -t 12.182757725 -Hs 9 -Hd -1 -Ni 9 -Nx 300.00 -Ny 450.00 -Nz 0.00 -Ne -1.000000 -Nl RTR -Nw --- -Ma 0 -Md ffffffff -Ms 4 -Mt 800 -Is 4.255 -Id -1.255 -It message -Il 32 -If 0 -Ii 20 -Iv 32 
r -t 12.183807462 -Hs 2 -Hd -1 -Ni 2 -Nx 334.10 -Ny 199.11 -Nz 0.00 -Ne -1.000000 -Nl RTR -Nw --- -Ma 0 -Md ffffffff -Ms 5 -Mt 800 -Is 5.255 -Id -1.255 -It message -Il 32 -If 0 -Ii 18 -Iv 32 
r -t 12.183807737 -Hs 3 -Hd -1 -Ni 3 -Nx 390.95 -Ny 259.56 -Nz 0.00 -Ne -1.000000 -Nl RTR -Nw --- -Ma 0 -Md ffffffff -Ms 5 -Mt 800 -Is 5.255 -Id -1.255 -It message -Il 32 -If 0 -Ii 18 -Iv 32 
r -t 12.183807799 -Hs 4 -Hd -1 -Ni 4 -Nx 424.30 -Ny 250.09 -Nz 0.00 -Ne -1.000000 -Nl RTR -Nw --- -Ma 0 -Md ffffffff -Ms 5 -Mt 800 -Is 5.255 -Id -1.255 -It message -Il 32 -If 0 -Ii 18 -Iv 32 
r -t 12.183807937 -Hs 1 -Hd -1 -Ni 1 -Nx 489.30 -Ny 178.49 -Nz 0.00 -Ne -1.000000 -Nl RTR -Nw --- -Ma 0 -Md ffffffff -Ms 5 -Mt 800 -Is 5.255 -Id -1.255 -It message -Il 32 -If 0 -Ii 18 -Iv 32 
s -t 12.472952727 -Hs 8 -Hd -1 -Ni 8 -Nx 86.99 -Ny 486.45 -Nz 0.00 -Ne -1.000000 -Nl RTR -Nw --- -Ma 0 -Md 0 -Ms 0 -Mt 0 -Is 8.255 -Id -1.255 -It message -Il 32 -If 0 -Ii 21 -Iv 32 
r -t 12.474073284 -Hs 7 -Hd -1 -Ni 7 -Nx 108.10 -Ny 320.85 -Nz 0.00 -Ne -1.000000 -Nl RTR -Nw --- -Ma 0 -Md ffffffff -Ms 8 -Mt 800 -Is 8.255 -Id -1.255 -It message -Il 32 -If 0 -Ii 21 -Iv 32 
r -t 12.474073448 -Hs 9 -Hd -1 -Ni 9 -Nx 300.00 -Ny 450.00 -Nz 0.00 -Ne -1.000000 -Nl RTR -Nw --- -Ma 0 -Md ffffffff -Ms 8 -Mt 800 -Is 8.255 -Id -1.255 -It message -Il 32 -If 0 -Ii 21 -Iv 32 
r -t 12.474073528 -Hs 6 -Hd -1 -Ni 6 -Nx 327.30 -Ny 481.09 -Nz 0.00 -Ne -1.000000 -Nl RTR -Nw --- -Ma 0 -Md ffffffff -Ms 8 -Mt 800 -Is 8.255 -Id -1.255 -It message -Il 32 -If 0 -Ii 21 -Iv 32 
s -t 12.480925730 -Hs 9 -Hd -1 -Ni 9 -Nx 300.00 -Ny 450.00 -Nz 0.00 -Ne -1.000000 -Nl RTR -Nw --- -Ma 0 -Md 0 -Ms 0 -Mt 0 -Is 9.255 -Id -1.255 -It message -Il 32 -If 0 -Ii 22 -Iv 32 
r -t 12.482205868 -Hs 6 -Hd -1 -Ni 6 -Nx 327.30 -Ny 481.09 -Nz 0.00 -Ne -1.000000 -Nl RTR -Nw --- -Ma 0 -Md ffffffff -Ms 9 -Mt 800 -Is 9.255 -Id -1.255 -It message -Il 32 -If 0 -Ii 22 -Iv 32 
r -t 12.482206434 -Hs 3 -Hd -1 -Ni 3 -Nx 390.95 -Ny 259.56 -Nz 0.00 -Ne -1.000000 -Nl RTR -Nw --- -Ma 0 -Md ffffffff -Ms 9 -Mt 800 -Is 9.255 -Id -1.255 -It message -Il 32 -If 0 -Ii 22 -Iv 32 
r -t 12.482206451 -Hs 8 -Hd -1 -Ni 8 -Nx 86.99 -Ny 486.45 -Nz 0.00 -Ne -1.000000 -Nl RTR -Nw --- -Ma 0 -Md ffffffff -Ms 9 -Mt 800 -Is 9.255 -Id -1.255 -It message -Il 32 -If 0 -Ii 22 -Iv 32 
r -t 12.482206501 -Hs 7 -Hd -1 -Ni 7 -Nx 108.10 -Ny 320.85 -Nz 0.00 -Ne -1.000000 -Nl RTR -Nw --- -Ma 0 -Md ffffffff -Ms 9 -Mt 800 -Is 9.255 -Id -1.255 -It message -Il 32 -If 0 -Ii 22 -Iv 32 
r -t 12.482206515 -Hs 4 -Hd -1 -Ni 4 -Nx 424.30 -Ny 250.09 -Nz 0.00 -Ne -1.000000 -Nl RTR -Nw --- -Ma 0 -Md ffffffff -Ms 9 -Mt 800 -Is 9.255 -Id -1.255 -It message -Il 32 -If 0 -Ii 22 -Iv 32 
s -t 12.628834096 -Hs 6 -Hd -1 -Ni 6 -Nx 327.30 -Ny 481.09 -Nz 0.00 -Ne -1.000000 -Nl RTR -Nw --- -Ma 0 -Md 0 -Ms 0 -Mt 0 -Is 6.255 -Id -1.255 -It message -Il 32 -If 0 -Ii 23 -Iv 32 
r -t 12.629734234 -Hs 9 -Hd -1 -Ni 9 -Nx 300.00 -Ny 450.00 -Nz 0.00 -Ne -1.000000 -Nl RTR -Nw --- -Ma 0 -Md ffffffff -Ms 6 -Mt 800 -Is 6.255 -Id -1.255 -It message -Il 32 -If 0 -Ii 23 -Iv 32 
r -t 12.629734864 -Hs 3 -Hd -1 -Ni 3 -Nx 390.95 -Ny 259.56 -Nz 0.00 -Ne -1.000000 -Nl RTR -Nw --- -Ma 0 -Md ffffffff -Ms 6 -Mt 800 -Is 6.255 -Id -1.255 -It message -Il 32 -If 0 -Ii 23 -Iv 32 
r -t 12.629734897 -Hs 8 -Hd -1 -Ni 8 -Nx 86.99 -Ny 486.45 -Nz 0.00 -Ne -1.000000 -Nl RTR -Nw --- -Ma 0 -Md ffffffff -Ms 6 -Mt 800 -Is 6.255 -Id -1.255 -It message -Il 32 -If 0 -Ii 23 -Iv 32 
s -t 12.630856655 -Hs 7 -Hd -1 -Ni 7 -Nx 108.10 -Ny 320.85 -Nz 0.00 -Ne -1.000000 -Nl RTR -Nw --- -Ma 0 -Md 0 -Ms 0 -Mt 0 -Is 7.255 -Id -1.255 -It message -Il 32 -If 0 -Ii 24 -Iv 32 
r -t 12.631877211 -Hs 8 -Hd -1 -Ni 8 -Nx 86.99 -Ny 486.45 -Nz 0.00 -Ne -1.000000 -Nl RTR -Nw --- -Ma 0 -Md ffffffff -Ms 7 -Mt 800 -Is 7.255 -Id -1.255 -It message -Il 32 -If 0 -Ii 24 -Iv 32 
r -t 12.631877426 -Hs 9 -Hd -1 -Ni 9 -Nx 300.00 -Ny 450.00 -Nz 0.00 -Ne -1.000000 -Nl RTR -Nw --- -Ma 0 -Md ffffffff -Ms 7 -Mt 800 -Is 7.255 -Id -1.255 -It message -Il 32 -If 0 -Ii 24 -Iv 32 
s -t 12.643184726 -Hs 2 -Hd -1 -Ni 2 -Nx 334.10 -Ny 199.11 -Nz 0.00 -Ne -1.000000 -Nl RTR -Nw --- -Ma 0 -Md 0 -Ms 0 -Mt 0 -Is 2.255 -Id -1.255 -It message -Il 32 -If 0 -Ii 25 -Iv 32 
r -t 12.644604818 -Hs 5 -Hd -1 -Ni 5 -Nx 319.04 -Ny 175.96 -Nz 0.00 -Ne -1.000000 -Nl RTR -Nw --- -Ma 0 -Md ffffffff -Ms 2 -Mt 800 -Is 2.255 -Id -1.255 -It message -Il 32 -If 0 -Ii 25 -Iv 32 
r -t 12.644605002 -Hs 3 -Hd -1 -Ni 3 -Nx 390.95 -Ny 259.56 -Nz 0.00 -Ne -1.000000 -Nl RTR -Nw --- -Ma 0 -Md ffffffff -Ms 2 -Mt 800 -Is 2.255 -Id -1.255 -It message -Il 32 -If 0 -Ii 25 -Iv 32 
r -t 12.644605071 -Hs 4 -Hd -1 -Ni 4 -Nx 424.30 -Ny 250.09 -Nz 0.00 -Ne -1.000000 -Nl RTR -Nw --- -Ma 0 -Md ffffffff -Ms 2 -Mt 800 -Is 2.255 -Id -1.255 -It message -Il 32 -If 0 -Ii 25 -Iv 32 
r -t 12.644605248 -Hs 1 -Hd -1 -Ni 1 -Nx 489.30 -Ny 178.49 -Nz 0.00 -Ne -1.000000 -Nl RTR -Nw --- -Ma 0 -Md ffffffff -Ms 2 -Mt 800 -Is 2.255 -Id -1.255 -It message -Il 32 -If 0 -Ii 25 -Iv 32 
s -t 12.778614107 -Hs 0 -Hd -1 -Ni 0 -Nx 0.00 -Ny 0.00 -Nz 0.00 -Ne -1.000000 -Nl RTR -Nw --- -Ma 0 -Md 0 -Ms 0 -Mt 0 -Is 0.255 -Id -1.255 -It message -Il 32 -If 0 -Ii 26 -Iv 32 
s -t 12.896997999 -Hs 4 -Hd -1 -Ni 4 -Nx 424.30 -Ny 250.09 -Nz 0.00 -Ne -1.000000 -Nl RTR -Nw --- -Ma 0 -Md 0 -Ms 0 -Mt 0 -Is 4.255 -Id -1.255 -It message -Il 68 -If 0 -Ii 27 -Iv 32 
r -t 12.898406114 -Hs 3 -Hd -1 -Ni 3 -Nx 390.95 -Ny 259.56 -Nz 0.00 -Ne -1.000000 -Nl RTR -Nw --- -Ma 0 -Md ffffffff -Ms 4 -Mt 800 -Is 4.255 -Id -1.255 -It message -Il 68 -If 0 -Ii 27 -Iv 32 
r -t 12.898406321 -Hs 1 -Hd -1 -Ni 1 -Nx 489.30 -Ny 178.49 -Nz 0.00 -Ne -1.000000 -Nl RTR -Nw --- -Ma 0 -Md ffffffff -Ms 4 -Mt 800 -Is 4.255 -Id -1.255 -It message -Il 68 -If 0 -Ii 27 -Iv 32 
r -t 12.898406344 -Hs 2 -Hd -1 -Ni 2 -Nx 334.10 -Ny 199.11 -Nz 0.00 -Ne -1.000000 -Nl RTR -Nw --- -Ma 0 -Md ffffffff -Ms 4 -Mt 800 -Is 4.255 -Id -1.255 -It message -Il 68 -If 0 -Ii 27 -Iv 32 
r -t 12.898406428 -Hs 5 -Hd -1 -Ni 5 -Nx 319.04 -Ny 175.96 -Nz 0.00 -Ne -1.000000 -Nl RTR -Nw --- -Ma 0 -Md ffffffff -Ms 4 -Mt 800 -Is 4.255 -Id -1.255 -It message -Il 68 -If 0 -Ii 27 -Iv 32 
r -t 12.898406783 -Hs 9 -Hd -1 -Ni 9 -Nx 300.00 -Ny 450.00 -Nz 0.00 -Ne -1.000000 -Nl RTR -Nw --- -Ma 0 -Md ffffffff -Ms 4 -Mt 800 -Is 4.255 -Id -1.255 -It message -Il 68 -If 0 -Ii 27 -Iv 32 
s -t 12.900589855 -Hs 1 -Hd -1 -Ni 1 -Nx 489.30 -Ny 178.49 -Nz 0.00 -Ne -1.000000 -Nl RTR -Nw --- -Ma 0 -Md 0 -Ms 0 -Mt 0 -Is 1.255 -Id -1.255 -It message -Il 56 -If 0 -Ii 28 -Iv 32 
r -t 12.901942178 -Hs 4 -Hd -1 -Ni 4 -Nx 424.30 -Ny 250.09 -Nz 0.00 -Ne -1.000000 -Nl RTR -Nw --- -Ma 0 -Md ffffffff -Ms 1 -Mt 800 -Is 1.255 -Id -1.255 -It message -Il 56 -If 0 -Ii 28 -Iv 32 
r -t 12.901942280 -Hs 3 -Hd -1 -Ni 3 -Nx 390.95 -Ny 259.56 -Nz 0.00 -Ne -1.000000 -Nl RTR -Nw --- -Ma 0 -Md ffffffff -Ms 1 -Mt 800 -Is 1.255 -Id -1.255 -It message -Il 56 -If 0 -Ii 28 -Iv 32 
r -t 12.901942377 -Hs 2 -Hd -1 -Ni 2 -Nx 334.10 -Ny 199.11 -Nz 0.00 -Ne -1.000000 -Nl RTR -Nw --- -Ma 0 -Md ffffffff -Ms 1 -Mt 800 -Is 1.255 -Id -1.255 -It message -Il 56 -If 0 -Ii 28 -Iv 32 
r -t 12.901942423 -Hs 5 -Hd -1 -Ni 5 -Nx 319.04 -Ny 175.96 -Nz 0.00 -Ne -1.000000 -Nl RTR -Nw --- -Ma 0 -Md ffffffff -Ms 1 -Mt 800 -Is 1.255 -Id -1.255 -It message -Il 56 -If 0 -Ii 28 -Iv 32 
s -t 13.178365263 -Hs 5 -Hd -1 -Ni 5 -Nx 319.04 -Ny 175.96 -Nz 0.00 -Ne -1.000000 -Nl RTR -Nw --- -Ma 0 -Md 0 -Ms 0 -Mt 0 -Is 5.255 -Id -1.255 -It message -Il 44 -If 0 -Ii 29 -Iv 32 
s -t 13.179198001 -Hs 3 -Hd -1 -Ni 3 -Nx 390.95 -Ny 259.56 -Nz 0.00 -Ne -1.000000 -Nl RTR -Nw --- -Ma 0 -Md 0 -Ms 0 -Mt 0 -Is 3.255 -Id -1.255 -It message -Il 56 -If 0 -Ii 30 -Iv 32 
r -t 13.179461355 -Hs 2 -Hd -1 -Ni 2 -Nx 334.10 -Ny 199.11 -Nz 0.00 -Ne -1.000000 -Nl RTR -Nw --- -Ma 0 -Md ffffffff -Ms 5 -Mt 800 -Is 5.255 -Id -1.255 -It message -Il 44 -If 0 -Ii 29 -Iv 32 
r -t 13.179461630 -Hs 3 -Hd -1 -Ni 3 -Nx 390.95 -Ny 259.56 -Nz 0.00 -Ne -1.000000 -Nl RTR -Nw --- -Ma 0 -Md ffffffff -Ms 5 -Mt 800 -Is 5.255 -Id -1.255 -It message -Il 44 -If 0 -Ii 29 -Iv 32 
r -t 13.179461692 -Hs 4 -Hd -1 -Ni 4 -Nx 424.30 -Ny 250.09 -Nz 0.00 -Ne -1.000000 -Nl RTR -Nw --- -Ma 0 -Md ffffffff -Ms 5 -Mt 800 -Is 5.255 -Id -1.255 -It message -Il 44 -If 0 -Ii 29 -Iv 32 
r -t 13.179461830 -Hs 1 -Hd -1 -Ni 1 -Nx 489.30 -Ny 178.49 -Nz 0.00 -Ne -1.000000 -Nl RTR -Nw --- -Ma 0 -Md ffffffff -Ms 5 -Mt 800 -Is 5.255 -Id -1.255 -It message -Il 44 -If 0 -Ii 29 -Iv 32 
r -t 13.180583746 -Hs 4 -Hd -1 -Ni 4 -Nx 424.30 -Ny 250.09 -Nz 0.00 -Ne -1.000000 -Nl RTR -Nw --- -Ma 0 -Md ffffffff -Ms 3 -Mt 800 -Is 3.255 -Id -1.255 -It message -Il 56 -If 0 -Ii 30 -Iv 32 
r -t 13.180583907 -Hs 2 -Hd -1 -Ni 2 -Nx 334.10 -Ny 199.11 -Nz 0.00 -Ne -1.000000 -Nl RTR -Nw --- -Ma 0 -Md ffffffff -Ms 3 -Mt 800 -Is 3.255 -Id -1.255 -It message -Il 56 -If 0 -Ii 30 -Iv 32 
r -t 13.180583998 -Hs 5 -Hd -1 -Ni 5 -Nx 319.04 -Ny 175.96 -Nz 0.00 -Ne -1.000000 -Nl RTR -Nw --- -Ma 0 -Md ffffffff -Ms 3 -Mt 800 -Is 3.255 -Id -1.255 -It message -Il 56 -If 0 -Ii 30 -Iv 32 
r -t 13.180584055 -Hs 1 -Hd -1 -Ni 1 -Nx 489.30 -Ny 178.49 -Nz 0.00 -Ne -1.000000 -Nl RTR -Nw --- -Ma 0 -Md ffffffff -Ms 3 -Mt 800 -Is 3.255 -Id -1.255 -It message -Il 56 -If 0 -Ii 30 -Iv 32 
r -t 13.180584334 -Hs 9 -Hd -1 -Ni 9 -Nx 300.00 -Ny 450.00 -Nz 0.00 -Ne -1.000000 -Nl RTR -Nw --- -Ma 0 -Md ffffffff -Ms 3 -Mt 800 -Is 3.255 -Id -1.255 -It message -Il 56 -If 0 -Ii 30 -Iv 32 
r -t 13.180584398 -Hs 6 -Hd -1 -Ni 6 -Nx 327.30 -Ny 481.09 -Nz 0.00 -Ne -1.000000 -Nl RTR -Nw --- -Ma 0 -Md ffffffff -Ms 3 -Mt 800 -Is 3.255 -Id -1.255 -It message -Il 56 -If 0 -Ii 30 -Iv 32 
s -t 13.474215553 -Hs 9 -Hd -1 -Ni 9 -Nx 300.00 -Ny 450.00 -Nz 0.00 -Ne -1.000000 -Nl RTR -Nw --- -Ma 0 -Md 0 -Ms 0 -Mt 0 -Is 9.255 -Id -1.255 -It message -Il 56 -If 0 -Ii 32 -Iv 32 
s -t 13.474817922 -Hs 8 -Hd -1 -Ni 8 -Nx 86.99 -Ny 486.45 -Nz 0.00 -Ne -1.000000 -Nl RTR -Nw --- -Ma 0 -Md 0 -Ms 0 -Mt 0 -Is 8.255 -Id -1.255 -It message -Il 44 -If 0 -Ii 31 -Iv 32 
r -t 13.475447691 -Hs 6 -Hd -1 -Ni 6 -Nx 327.30 -Ny 481.09 -Nz 0.00 -Ne -1.000000 -Nl RTR -Nw --- -Ma 0 -Md ffffffff -Ms 9 -Mt 800 -Is 9.255 -Id -1.255 -It message -Il 56 -If 0 -Ii 32 -Iv 32 
r -t 13.475448257 -Hs 3 -Hd -1 -Ni 3 -Nx 390.95 -Ny 259.56 -Nz 0.00 -Ne -1.000000 -Nl RTR -Nw --- -Ma 0 -Md ffffffff -Ms 9 -Mt 800 -Is 9.255 -Id -1.255 -It message -Il 56 -If 0 -Ii 32 -Iv 32 
r -t 13.475448273 -Hs 8 -Hd -1 -Ni 8 -Nx 86.99 -Ny 486.45 -Nz 0.00 -Ne -1.000000 -Nl RTR -Nw --- -Ma 0 -Md ffffffff -Ms 9 -Mt 800 -Is 9.255 -Id -1.255 -It message -Il 56 -If 0 -Ii 32 -Iv 32 
r -t 13.475448324 -Hs 7 -Hd -1 -Ni 7 -Nx 108.10 -Ny 320.85 -Nz 0.00 -Ne -1.000000 -Nl RTR -Nw --- -Ma 0 -Md ffffffff -Ms 9 -Mt 800 -Is 9.255 -Id -1.255 -It message -Il 56 -If 0 -Ii 32 -Iv 32 
r -t 13.475448338 -Hs 4 -Hd -1 -Ni 4 -Nx 424.30 -Ny 250.09 -Nz 0.00 -Ne -1.000000 -Nl RTR -Nw --- -Ma 0 -Md ffffffff -Ms 9 -Mt 800 -Is 9.255 -Id -1.255 -It message -Il 56 -If 0 -Ii 32 -Iv 32 
r -t 13.476314830 -Hs 7 -Hd -1 -Ni 7 -Nx 108.10 -Ny 320.85 -Nz 0.00 -Ne -1.000000 -Nl RTR -Nw --- -Ma 0 -Md ffffffff -Ms 8 -Mt 800 -Is 8.255 -Id -1.255 -It message -Il 44 -If 0 -Ii 31 -Iv 32 
r -t 13.476314994 -Hs 9 -Hd -1 -Ni 9 -Nx 300.00 -Ny 450.00 -Nz 0.00 -Ne -1.000000 -Nl RTR -Nw --- -Ma 0 -Md ffffffff -Ms 8 -Mt 800 -Is 8.255 -Id -1.255 -It message -Il 44 -If 0 -Ii 31 -Iv 32 
r -t 13.476315075 -Hs 6 -Hd -1 -Ni 6 -Nx 327.30 -Ny 481.09 -Nz 0.00 -Ne -1.000000 -Nl RTR -Nw --- -Ma 0 -Md ffffffff -Ms 8 -Mt 800 -Is 8.255 -Id -1.255 -It message -Il 44 -If 0 -Ii 31 -Iv 32 
s -t 13.625217934 -Hs 7 -Hd -1 -Ni 7 -Nx 108.10 -Ny 320.85 -Nz 0.00 -Ne -1.000000 -Nl RTR -Nw --- -Ma 0 -Md 0 -Ms 0 -Mt 0 -Is 7.255 -Id -1.255 -It message -Il 44 -If 0 -Ii 34 -Iv 32 
r -t 13.626634490 -Hs 8 -Hd -1 -Ni 8 -Nx 86.99 -Ny 486.45 -Nz 0.00 -Ne -1.000000 -Nl RTR -Nw --- -Ma 0 -Md ffffffff -Ms 7 -Mt 800 -Is 7.255 -Id -1.255 -It message -Il 44 -If 0 -Ii 34 -Iv 32 
r -t 13.626634705 -Hs 9 -Hd -1 -Ni 9 -Nx 300.00 -Ny 450.00 -Nz 0.00 -Ne -1.000000 -Nl RTR -Nw --- -Ma 0 -Md ffffffff -Ms 7 -Mt 800 -Is 7.255 -Id -1.255 -It message -Il 44 -If 0 -Ii 34 -Iv 32 
s -t 13.631563429 -Hs 6 -Hd -1 -Ni 6 -Nx 327.30 -Ny 481.09 -Nz 0.00 -Ne -1.000000 -Nl RTR -Nw --- -Ma 0 -Md 0 -Ms 0 -Mt 0 -Is 6.255 -Id -1.255 -It message -Il 56 -If 0 -Ii 33 -Iv 32 
r -t 13.632735567 -Hs 9 -Hd -1 -Ni 9 -Nx 300.00 -Ny 450.00 -Nz 0.00 -Ne -1.000000 -Nl RTR -Nw --- -Ma 0 -Md ffffffff -Ms 6 -Mt 800 -Is 6.255 -Id -1.255 -It message -Il 56 -If 0 -Ii 33 -Iv 32 
r -t 13.632736197 -Hs 3 -Hd -1 -Ni 3 -Nx 390.95 -Ny 259.56 -Nz 0.00 -Ne -1.000000 -Nl RTR -Nw --- -Ma 0 -Md ffffffff -Ms 6 -Mt 800 -Is 6.255 -Id -1.255 -It message -Il 56 -If 0 -Ii 33 -Iv 32 
r -t 13.632736230 -Hs 8 -Hd -1 -Ni 8 -Nx 86.99 -Ny 486.45 -Nz 0.00 -Ne -1.000000 -Nl RTR -Nw --- -Ma 0 -Md ffffffff -Ms 6 -Mt 800 -Is 6.255 -Id -1.255 -It message -Il 56 -If 0 -Ii 33 -Iv 32 
s -t 13.641111777 -Hs 2 -Hd -1 -Ni 2 -Nx 334.10 -Ny 199.11 -Nz 0.00 -Ne -1.000000 -Nl RTR -Nw --- -Ma 0 -Md 0 -Ms 0 -Mt 0 -Is 2.255 -Id -1.255 -It message -Il 44 -If 0 -Ii 35 -Iv 32 
r -t 13.642127869 -Hs 5 -Hd -1 -Ni 5 -Nx 319.04 -Ny 175.96 -Nz 0.00 -Ne -1.000000 -Nl RTR -Nw --- -Ma 0 -Md ffffffff -Ms 2 -Mt 800 -Is 2.255 -Id -1.255 -It message -Il 44 -If 0 -Ii 35 -Iv 32 
r -t 13.642128054 -Hs 3 -Hd -1 -Ni 3 -Nx 390.95 -Ny 259.56 -Nz 0.00 -Ne -1.000000 -Nl RTR -Nw --- -Ma 0 -Md ffffffff -Ms 2 -Mt 800 -Is 2.255 -Id -1.255 -It message -Il 44 -If 0 -Ii 35 -Iv 32 
r -t 13.642128122 -Hs 4 -Hd -1 -Ni 4 -Nx 424.30 -Ny 250.09 -Nz 0.00 -Ne -1.000000 -Nl RTR -Nw --- -Ma 0 -Md ffffffff -Ms 2 -Mt 800 -Is 2.255 -Id -1.255 -It message -Il 44 -If 0 -Ii 35 -Iv 32 
r -t 13.642128299 -Hs 1 -Hd -1 -Ni 1 -Nx 489.30 -Ny 178.49 -Nz 0.00 -Ne -1.000000 -Nl RTR -Nw --- -Ma 0 -Md ffffffff -Ms 2 -Mt 800 -Is 2.255 -Id -1.255 -It message -Il 44 -If 0 -Ii 35 -Iv 32 
s -t 13.813251068 -Hs 9 -Hd -1 -Ni 9 -Nx 300.00 -Ny 450.00 -Nz 0.00 -Ne -1.000000 -Nl RTR -Nw --- -Ma 0 -Md 0 -Ms 0 -Mt 0 -Is 9.255 -Id -1.255 -It message -Il 80 -If 0 -Ii 36 -Iv 32 
r -t 13.815055206 -Hs 6 -Hd -1 -Ni 6 -Nx 327.30 -Ny 481.09 -Nz 0.00 -Ne -1.000000 -Nl RTR -Nw --- -Ma 0 -Md ffffffff -Ms 9 -Mt 800 -Is 9.255 -Id -1.255 -It message -Il 80 -If 0 -Ii 36 -Iv 32 
r -t 13.815055772 -Hs 3 -Hd -1 -Ni 3 -Nx 390.95 -Ny 259.56 -Nz 0.00 -Ne -1.000000 -Nl RTR -Nw --- -Ma 0 -Md ffffffff -Ms 9 -Mt 800 -Is 9.255 -Id -1.255 -It message -Il 80 -If 0 -Ii 36 -Iv 32 
r -t 13.815055788 -Hs 8 -Hd -1 -Ni 8 -Nx 86.99 -Ny 486.45 -Nz 0.00 -Ne -1.000000 -Nl RTR -Nw --- -Ma 0 -Md ffffffff -Ms 9 -Mt 800 -Is 9.255 -Id -1.255 -It message -Il 80 -If 0 -Ii 36 -Iv 32 
r -t 13.815055839 -Hs 7 -Hd -1 -Ni 7 -Nx 108.10 -Ny 320.85 -Nz 0.00 -Ne -1.000000 -Nl RTR -Nw --- -Ma 0 -Md ffffffff -Ms 9 -Mt 800 -Is 9.255 -Id -1.255 -It message -Il 80 -If 0 -Ii 36 -Iv 32 
r -t 13.815055853 -Hs 4 -Hd -1 -Ni 4 -Nx 424.30 -Ny 250.09 -Nz 0.00 -Ne -1.000000 -Nl RTR -Nw --- -Ma 0 -Md ffffffff -Ms 9 -Mt 800 -Is 9.255 -Id -1.255 -It message -Il 80 -If 0 -Ii 36 -Iv 32 
s -t 13.890033947 -Hs 4 -Hd -1 -Ni 4 -Nx 424.30 -Ny 250.09 -Nz 0.00 -Ne -1.000000 -Nl RTR -Nw --- -Ma 0 -Md 0 -Ms 0 -Mt 0 -Is 4.255 -Id -1.255 -It message -Il 32 -If 0 -Ii 37 -Iv 32 
r -t 13.890874062 -Hs 3 -Hd -1 -Ni 3 -Nx 390.95 -Ny 259.56 -Nz 0.00 -Ne -1.000000 -Nl RTR -Nw --- -Ma 0 -Md ffffffff -Ms 4 -Mt 800 -Is 4.255 -Id -1.255 -It message -Il 32 -If 0 -Ii 37 -Iv 32 
r -t 13.890874269 -Hs 1 -Hd -1 -Ni 1 -Nx 489.30 -Ny 178.49 -Nz 0.00 -Ne -1.000000 -Nl RTR -Nw --- -Ma 0 -Md ffffffff -Ms 4 -Mt 800 -Is 4.255 -Id -1.255 -It message -Il 32 -If 0 -Ii 37 -Iv 32 
r -t 13.890874292 -Hs 2 -Hd -1 -Ni 2 -Nx 334.10 -Ny 199.11 -Nz 0.00 -Ne -1.000000 -Nl RTR -Nw --- -Ma 0 -Md ffffffff -Ms 4 -Mt 800 -Is 4.255 -Id -1.255 -It message -Il 32 -If 0 -Ii 37 -Iv 32 
r -t 13.890874376 -Hs 5 -Hd -1 -Ni 5 -Nx 319.04 -Ny 175.96 -Nz 0.00 -Ne -1.000000 -Nl RTR -Nw --- -Ma 0 -Md ffffffff -Ms 4 -Mt 800 -Is 4.255 -Id -1.255 -It message -Il 32 -If 0 -Ii 37 -Iv 32 