V -t * -v 1.0a5 -a 0
A -t * -n 1 -p 0 -o 0x7fffffff -c 30 -a 1
A -t * -h 1 -m 1073741823 -s 0
c -t * -i 1 -n Red
c -t * -i 2 -n Blue
n -t * -a 4 -s 4 -S UP -v circle -c black -i black
n -t * -a 0 -s 0 -S UP -v circle -c black -i black
n -t * -a 5 -s 5 -S UP -v circle -c black -i black
n -t * -a 1 -s 1 -S UP -v circle -c black -i black
n -t * -a 2 -s 2 -S UP -v circle -c black -i black
n -t * -a 3 -s 3 -S UP -v circle -c black -i black
l -t * -s 2 -d 3 -S UP -r 300000 -D 0.10000000000000001 -c black -o right
l -t * -s 2 -d 0 -S UP -r 2000000 -D 0.01 -c black -o left-up
l -t * -s 2 -d 1 -S UP -r 2000000 -D 0.01 -c black -o left-down
l -t * -s 3 -d 4 -S UP -r 500000 -D 0.040000000000000001 -c black -o right-up
l -t * -s 3 -d 5 -S UP -r 500000 -D 0.029999999999999999 -c black -o right-down
+ -t 0.1 -s 1 -d 2 -p cbr -e 512 -c 1 -i 0 -a 1 -x {1.0 5.0 0 ------- null}
- -t 0.1 -s 1 -d 2 -p cbr -e 512 -c 1 -i 0 -a 1 -x {1.0 5.0 0 ------- null}
h -t 0.1 -s 1 -d 2 -p cbr -e 512 -c 1 -i 0 -a 1 -x {1.0 5.0 -1 ------- null}
r -t 0.112048 -s 1 -d 2 -p cbr -e 512 -c 1 -i 0 -a 1 -x {1.0 5.0 0 ------- null}
+ -t 0.112048 -s 2 -d 3 -p cbr -e 512 -c 1 -i 0 -a 1 -x {1.0 5.0 0 ------- null}
- -t 0.112048 -s 2 -d 3 -p cbr -e 512 -c 1 -i 0 -a 1 -x {1.0 5.0 0 ------- null}
h -t 0.112048 -s 2 -d 3 -p cbr -e 512 -c 1 -i 0 -a 1 -x {1.0 5.0 -1 ------- null}
+ -t 0.12048 -s 1 -d 2 -p cbr -e 512 -c 1 -i 1 -a 1 -x {1.0 5.0 1 ------- null}
- -t 0.12048 -s 1 -d 2 -p cbr -e 512 -c 1 -i 1 -a 1 -x {1.0 5.0 1 ------- null}
h -t 0.12048 -s 1 -d 2 -p cbr -e 512 -c 1 -i 1 -a 1 -x {1.0 5.0 -1 ------- null}
r -t 0.132528 -s 1 -d 2 -p cbr -e 512 -c 1 -i 1 -a 1 -x {1.0 5.0 1 ------- null}
+ -t 0.132528 -s 2 -d 3 -p cbr -e 512 -c 1 -i 1 -a 1 -x {1.0 5.0 1 ------- null}
- -t 0.132528 -s 2 -d 3 -p cbr -e 512 -c 1 -i 1 -a 1 -x {1.0 5.0 1 ------- null}
h -t 0.132528 -s 2 -d 3 -p cbr -e 512 -c 1 -i 1 -a 1 -x {1.0 5.0 -1 ------- null}
+ -t 0.14096 -s 1 -d 2 -p cbr -e 512 -c 1 -i 2 -a 1 -x {1.0 5.0 2 ------- null}
- -t 0.14096 -s 1 -d 2 -p cbr -e 512 -c 1 -i 2 -a 1 -x {1.0 5.0 2 ------- null}
h -t 0.14096 -s 1 -d 2 -p cbr -e 512 -c 1 -i 2 -a 1 -x {1.0 5.0 -1 ------- null}
r -t 0.153008 -s 1 -d 2 -p cbr -e 512 -c 1 -i 2 -a 1 -x {1.0 5.0 2 ------- null}
+ -t 0.153008 -s 2 -d 3 -p cbr -e 512 -c 1 -i 2 -a 1 -x {1.0 5.0 2 ------- null}
- -t 0.153008 -s 2 -d 3 -p cbr -e 512 -c 1 -i 2 -a 1 -x {1.0 5.0 2 ------- null}
h -t 0.153008 -s 2 -d 3 -p cbr -e 512 -c 1 -i 2 -a 1 -x {1.0 5.0 -1 ------- null}
+ -t 0.16144 -s 1 -d 2 -p cbr -e 512 -c 1 -i 3 -a 1 -x {1.0 5.0 3 ------- null}
- -t 0.16144 -s 1 -d 2 -p cbr -e 512 -c 1 -i 3 -a 1 -x {1.0 5.0 3 ------- null}
h -t 0.16144 -s 1 -d 2 -p cbr -e 512 -c 1 -i 3 -a 1 -x {1.0 5.0 -1 ------- null}
r -t 0.173488 -s 1 -d 2 -p cbr -e 512 -c 1 -i 3 -a 1 -x {1.0 5.0 3 ------- null}
+ -t 0.173488 -s 2 -d 3 -p cbr -e 512 -c 1 -i 3 -a 1 -x {1.0 5.0 3 ------- null}
- -t 0.173488 -s 2 -d 3 -p cbr -e 512 -c 1 -i 3 -a 1 -x {1.0 5.0 3 ------- null}
h -t 0.173488 -s 2 -d 3 -p cbr -e 512 -c 1 -i 3 -a 1 -x {1.0 5.0 -1 ------- null}
+ -t 0.18192 -s 1 -d 2 -p cbr -e 512 -c 1 -i 4 -a 1 -x {1.0 5.0 4 ------- null}
- -t 0.18192 -s 1 -d 2 -p cbr -e 512 -c 1 -i 4 -a 1 -x {1.0 5.0 4 ------- null}
h -t 0.18192 -s 1 -d 2 -p cbr -e 512 -c 1 -i 4 -a 1 -x {1.0 5.0 -1 ------- null}
r -t 0.193968 -s 1 -d 2 -p cbr -e 512 -c 1 -i 4 -a 1 -x {1.0 5.0 4 ------- null}
+ -t 0.193968 -s 2 -d 3 -p cbr -e 512 -c 1 -i 4 -a 1 -x {1.0 5.0 4 ------- null}
- -t 0.193968 -s 2 -d 3 -p cbr -e 512 -c 1 -i 4 -a 1 -x {1.0 5.0 4 ------- null}
h -t 0.193968 -s 2 -d 3 -p cbr -e 512 -c 1 -i 4 -a 1 -x {1.0 5.0 -1 ------- null}
+ -t 0.2 -s 0 -d 2 -p tcp -e 40 -c 2 -i 5 -a 2 -x {0.0 4.0 0 ------- null}
- -t 0.2 -s 0 -d 2 -p tcp -e 40 -c 2 -i 5 -a 2 -x {0.0 4.0 0 ------- null}
h -t 0.2 -s 0 -d 2 -p tcp -e 40 -c 2 -i 5 -a 2 -x {0.0 4.0 -1 ------- null}
+ -t 0.2024 -s 1 -d 2 -p cbr -e 512 -c 1 -i 6 -a 1 -x {1.0 5.0 5 ------- null}
- -t 0.2024 -s 1 -d 2 -p cbr -e 512 -c 1 -i 6 -a 1 -x {1.0 5.0 5 ------- null}
h -t 0.2024 -s 1 -d 2 -p cbr -e 512 -c 1 -i 6 -a 1 -x {1.0 5.0 -1 ------- null}
r -t 0.21016 -s 0 -d 2 -p tcp -e 40 -c 2 -i 5 -a 2 -x {0.0 4.0 0 ------- null}
+ -t 0.21016 -s 2 -d 3 -p tcp -e 40 -c 2 -i 5 -a 2 -x {0.0 4.0 0 ------- null}
- -t 0.21016 -s 2 -d 3 -p tcp -e 40 -c 2 -i 5 -a 2 -x {0.0 4.0 0 ------- null}
h -t 0.21016 -s 2 -d 3 -p tcp -e 40 -c 2 -i 5 -a 2 -x {0.0 4.0 -1 ------- null}
r -t 0.214448 -s 1 -d 2 -p cbr -e 512 -c 1 -i 6 -a 1 -x {1.0 5.0 5 ------- null}
+ -t 0.214448 -s 2 -d 3 -p cbr -e 512 -c 1 -i 6 -a 1 -x {1.0 5.0 5 ------- null}
- -t 0.214448 -s 2 -d 3 -p cbr -e 512 -c 1 -i 6 -a 1 -x {1.0 5.0 5 ------- null}
h -t 0.214448 -s 2 -d 3 -p cbr -e 512 -c 1 -i 6 -a 1 -x {1.0 5.0 -1 ------- null}
+ -t 0.22288 -s 1 -d 2 -p cbr -e 512 -c 1 -i 7 -a 1 -x {1.0 5.0 6 ------- null}
- -t 0.22288 -s 1 -d 2 -p cbr -e 512 -c 1 -i 7 -a 1 -x {1.0 5.0 6 ------- null}
h -t 0.22288 -s 1 -d 2 -p cbr -e 512 -c 1 -i 7 -a 1 -x {1.0 5.0 -1 ------- null}
r -t 0.225701333333333 -s 2 -d 3 -p cbr -e 512 -c 1 -i 0 -a 1 -x {1.0 5.0 0 ------- null}
+ -t 0.225701333333333 -s 3 -d 5 -p cbr -e 512 -c 1 -i 0 -a 1 -x {1.0 5.0 0 ------- null}
- -t 0.225701333333333 -s 3 -d 5 -p cbr -e 512 -c 1 -i 0 -a 1 -x {1.0 5.0 0 ------- null}
h -t 0.225701333333333 -s 3 -d 5 -p cbr -e 512 -c 1 -i 0 -a 1 -x {1.0 5.0 -1 ------- null}
r -t 0.234928 -s 1 -d 2 -p cbr -e 512 -c 1 -i 7 -a 1 -x {1.0 5.0 6 ------- null}
+ -t 0.234928 -s 2 -d 3 -p cbr -e 512 -c 1 -i 7 -a 1 -x {1.0 5.0 6 ------- null}
- -t 0.234928 -s 2 -d 3 -p cbr -e 512 -c 1 -i 7 -a 1 -x {1.0 5.0 6 ------- null}
h -t 0.234928 -s 2 -d 3 -p cbr -e 512 -c 1 -i 7 -a 1 -x {1.0 5.0 -1 ------- null}
+ -t 0.24336 -s 1 -d 2 -p cbr -e 512 -c 1 -i 8 -a 1 -x {1.0 5.0 7 ------- null}
- -t 0.24336 -s 1 -d 2 -p cbr -e 512 -c 1 -i 8 -a 1 -x {1.0 5.0 7 ------- null}
h -t 0.24336 -s 1 -d 2 -p cbr -e 512 -c 1 -i 8 -a 1 -x {1.0 5.0 -1 ------- null}
r -t 0.246181333333333 -s 2 -d 3 -p cbr -e 512 -c 1 -i 1 -a 1 -x {1.0 5.0 1 ------- null}
+ -t 0.246181333333333 -s 3 -d 5 -p cbr -e 512 -c 1 -i 1 -a 1 -x {1.0 5.0 1 ------- null}
- -t 0.246181333333333 -s 3 -d 5 -p cbr -e 512 -c 1 -i 1 -a 1 -x {1.0 5.0 1 ------- null}
h -t 0.246181333333333 -s 3 -d 5 -p cbr -e 512 -c 1 -i 1 -a 1 -x {1.0 5.0 -1 ------- null}
r -t 0.255408 -s 1 -d 2 -p cbr -e 512 -c 1 -i 8 -a 1 -x {1.0 5.0 7 ------- null}
+ -t 0.255408 -s 2 -d 3 -p cbr -e 512 -c 1 -i 8 -a 1 -x {1.0 5.0 7 ------- null}
- -t 0.255408 -s 2 -d 3 -p cbr -e 512 -c 1 -i 8 -a 1 -x {1.0 5.0 7 ------- null}
h -t 0.255408 -s 2 -d 3 -p cbr -e 512 -c 1 -i 8 -a 1 -x {1.0 5.0 -1 ------- null}
+ -t 0.26384 -s 1 -d 2 -p cbr -e 512 -c 1 -i 9 -a 1 -x {1.0 5.0 8 ------- null}
- -t 0.26384 -s 1 -d 2 -p cbr -e 512 -c 1 -i 9 -a 1 -x {1.0 5.0 8 ------- null}
h -t 0.26384 -s 1 -d 2 -p cbr -e 512 -c 1 -i 9 -a 1 -x {1.0 5.0 -1 ------- null}
r -t 0.263893333333333 -s 3 -d 5 -p cbr -e 512 -c 1 -i 0 -a 1 -x {1.0 5.0 0 ------- null}
r -t 0.266661333333333 -s 2 -d 3 -p cbr -e 512 -c 1 -i 2 -a 1 -x {1.0 5.0 2 ------- null}
+ -t 0.266661333333333 -s 3 -d 5 -p cbr -e 512 -c 1 -i 2 -a 1 -x {1.0 5.0 2 ------- null}
- -t 0.266661333333333 -s 3 -d 5 -p cbr -e 512 -c 1 -i 2 -a 1 -x {1.0 5.0 2 ------- null}
h -t 0.266661333333333 -s 3 -d 5 -p cbr -e 512 -c 1 -i 2 -a 1 -x {1.0 5.0 -1 ------- null}
r -t 0.275888 -s 1 -d 2 -p cbr -e 512 -c 1 -i 9 -a 1 -x {1.0 5.0 8 ------- null}
+ -t 0.275888 -s 2 -d 3 -p cbr -e 512 -c 1 -i 9 -a 1 -x {1.0 5.0 8 ------- null}
- -t 0.275888 -s 2 -d 3 -p cbr -e 512 -c 1 -i 9 -a 1 -x {1.0 5.0 8 ------- null}
h -t 0.275888 -s 2 -d 3 -p cbr -e 512 -c 1 -i 9 -a 1 -x {1.0 5.0 -1 ------- null}
+ -t 0.28432 -s 1 -d 2 -p cbr -e 512 -c 1 -i 10 -a 1 -x {1.0 5.0 9 ------- null}
- -t 0.28432 -s 1 -d 2 -p cbr -e 512 -c 1 -i 10 -a 1 -x {1.0 5.0 9 ------- null}
h -t 0.28432 -s 1 -d 2 -p cbr -e 512 -c 1 -i 10 -a 1 -x {1.0 5.0 -1 ------- null}
r -t 0.284373333333333 -s 3 -d 5 -p cbr -e 512 -c 1 -i 1 -a 1 -x {1.0 5.0 1 ------- null}
r -t 0.287141333333333 -s 2 -d 3 -p cbr -e 512 -c 1 -i 3 -a 1 -x {1.0 5.0 3 ------- null}
+ -t 0.287141333333333 -s 3 -d 5 -p cbr -e 512 -c 1 -i 3 -a 1 -x {1.0 5.0 3 ------- null}
- -t 0.287141333333333 -s 3 -d 5 -p cbr -e 512 -c 1 -i 3 -a 1 -x {1.0 5.0 3 ------- null}
h -t 0.287141333333333 -s 3 -d 5 -p cbr -e 512 -c 1 -i 3 -a 1 -x {1.0 5.0 -1 ------- null}
r -t 0.296368 -s 1 -d 2 -p cbr -e 512 -c 1 -i 10 -a 1 -x {1.0 5.0 9 ------- null}
+ -t 0.296368 -s 2 -d 3 -p cbr -e 512 -c 1 -i 10 -a 1 -x {1.0 5.0 9 ------- null}
- -t 0.296368 -s 2 -d 3 -p cbr -e 512 -c 1 -i 10 -a 1 -x {1.0 5.0 9 ------- null}
h -t 0.296368 -s 2 -d 3 -p cbr -e 512 -c 1 -i 10 -a 1 -x {1.0 5.0 -1 ------- null}
+ -t 0.3048 -s 1 -d 2 -p cbr -e 512 -c 1 -i 11 -a 1 -x {1.0 5.0 10 ------- null}
- -t 0.3048 -s 1 -d 2 -p cbr -e 512 -c 1 -i 11 -a 1 -x {1.0 5.0 10 ------- null}
h -t 0.3048 -s 1 -d 2 -p cbr -e 512 -c 1 -i 11 -a 1 -x {1.0 5.0 -1 ------- null}
r -t 0.304853333333333 -s 3 -d 5 -p cbr -e 512 -c 1 -i 2 -a 1 -x {1.0 5.0 2 ------- null}
r -t 0.307621333333333 -s 2 -d 3 -p cbr -e 512 -c 1 -i 4 -a 1 -x {1.0 5.0 4 ------- null}
+ -t 0.307621333333333 -s 3 -d 5 -p cbr -e 512 -c 1 -i 4 -a 1 -x {1.0 5.0 4 ------- null}
- -t 0.307621333333333 -s 3 -d 5 -p cbr -e 512 -c 1 -i 4 -a 1 -x {1.0 5.0 4 ------- null}
h -t 0.307621333333333 -s 3 -d 5 -p cbr -e 512 -c 1 -i 4 -a 1 -x {1.0 5.0 -1 ------- null}
r -t 0.311226666666667 -s 2 -d 3 -p tcp -e 40 -c 2 -i 5 -a 2 -x {0.0 4.0 0 ------- null}
+ -t 0.311226666666667 -s 3 -d 4 -p tcp -e 40 -c 2 -i 5 -a 2 -x {0.0 4.0 0 ------- null}
- -t 0.311226666666667 -s 3 -d 4 -p tcp -e 40 -c 2 -i 5 -a 2 -x {0.0 4.0 0 ------- null}
h -t 0.311226666666667 -s 3 -d 4 -p tcp -e 40 -c 2 -i 5 -a 2 -x {0.0 4.0 -1 ------- null}
r -t 0.316848 -s 1 -d 2 -p cbr -e 512 -c 1 -i 11 -a 1 -x {1.0 5.0 10 ------- null}
+ -t 0.316848 -s 2 -d 3 -p cbr -e 512 -c 1 -i 11 -a 1 -x {1.0 5.0 10 ------- null}
- -t 0.316848 -s 2 -d 3 -p cbr -e 512 -c 1 -i 11 -a 1 -x {1.0 5.0 10 ------- null}
h -t 0.316848 -s 2 -d 3 -p cbr -e 512 -c 1 -i 11 -a 1 -x {1.0 5.0 -1 ------- null}
+ -t 0.32528 -s 1 -d 2 -p cbr -e 512 -c 1 -i 12 -a 1 -x {1.0 5.0 11 ------- null}
- -t 0.32528 -s 1 -d 2 -p cbr -e 512 -c 1 -i 12 -a 1 -x {1.0 5.0 11 ------- null}
h -t 0.32528 -s 1 -d 2 -p cbr -e 512 -c 1 -i 12 -a 1 -x {1.0 5.0 -1 ------- null}
r -t 0.325333333333333 -s 3 -d 5 -p cbr -e 512 -c 1 -i 3 -a 1 -x {1.0 5.0 3 ------- null}
r -t 0.328101333333333 -s 2 -d 3 -p cbr -e 512 -c 1 -i 6 -a 1 -x {1.0 5.0 5 ------- null}
+ -t 0.328101333333333 -s 3 -d 5 -p cbr -e 512 -c 1 -i 6 -a 1 -x {1.0 5.0 5 ------- null}
- -t 0.328101333333333 -s 3 -d 5 -p cbr -e 512 -c 1 -i 6 -a 1 -x {1.0 5.0 5 ------- null}
h -t 0.328101333333333 -s 3 -d 5 -p cbr -e 512 -c 1 -i 6 -a 1 -x {1.0 5.0 -1 ------- null}
r -t 0.337328 -s 1 -d 2 -p cbr -e 512 -c 1 -i 12 -a 1 -x {1.0 5.0 11 ------- null}
+ -t 0.337328 -s 2 -d 3 -p cbr -e 512 -c 1 -i 12 -a 1 -x {1.0 5.0 11 ------- null}
- -t 0.337328 -s 2 -d 3 -p cbr -e 512 -c 1 -i 12 -a 1 -x {1.0 5.0 11 ------- null}
h -t 0.337328 -s 2 -d 3 -p cbr -e 512 -c 1 -i 12 -a 1 -x {1.0 5.0 -1 ------- null}
+ -t 0.34576 -s 1 -d 2 -p cbr -e 512 -c 1 -i 13 -a 1 -x {1.0 5.0 12 ------- null}
- -t 0.34576 -s 1 -d 2 -p cbr -e 512 -c 1 -i 13 -a 1 -x {1.0 5.0 12 ------- null}
h -t 0.34576 -s 1 -d 2 -p cbr -e 512 -c 1 -i 13 -a 1 -x {1.0 5.0 -1 ------- null}
r -t 0.345813333333333 -s 3 -d 5 -p cbr -e 512 -c 1 -i 4 -a 1 -x {1.0 5.0 4 ------- null}
r -t 0.348581333333333 -s 2 -d 3 -p cbr -e 512 -c 1 -i 7 -a 1 -x {1.0 5.0 6 ------- null}
+ -t 0.348581333333333 -s 3 -d 5 -p cbr -e 512 -c 1 -i 7 -a 1 -x {1.0 5.0 6 ------- null}
- -t 0.348581333333333 -s 3 -d 5 -p cbr -e 512 -c 1 -i 7 -a 1 -x {1.0 5.0 6 ------- null}
h -t 0.348581333333333 -s 3 -d 5 -p cbr -e 512 -c 1 -i 7 -a 1 -x {1.0 5.0 -1 ------- null}
r -t 0.351866666666667 -s 3 -d 4 -p tcp -e 40 -c 2 -i 5 -a 2 -x {0.0 4.0 0 ------- null}
+ -t 0.351866666666667 -s 4 -d 3 -p ack -e 40 -c 2 -i 14 -a 2 -x {4.0 0.0 0 ------- null}
- -t 0.351866666666667 -s 4 -d 3 -p ack -e 40 -c 2 -i 14 -a 2 -x {4.0 0.0 0 ------- null}
h -t 0.351866666666667 -s 4 -d 3 -p ack -e 40 -c 2 -i 14 -a 2 -x {4.0 0.0 -1 ------- null}
r -t 0.357808 -s 1 -d 2 -p cbr -e 512 -c 1 -i 13 -a 1 -x {1.0 5.0 12 ------- null}
+ -t 0.357808 -s 2 -d 3 -p cbr -e 512 -c 1 -i 13 -a 1 -x {1.0 5.0 12 ------- null}
- -t 0.357808 -s 2 -d 3 -p cbr -e 512 -c 1 -i 13 -a 1 -x {1.0 5.0 12 ------- null}
h -t 0.357808 -s 2 -d 3 -p cbr -e 512 -c 1 -i 13 -a 1 -x {1.0 5.0 -1 ------- null}
+ -t 0.36624 -s 1 -d 2 -p cbr -e 512 -c 1 -i 15 -a 1 -x {1.0 5.0 13 ------- null}
- -t 0.36624 -s 1 -d 2 -p cbr -e 512 -c 1 -i 15 -a 1 -x {1.0 5.0 13 ------- null}
h -t 0.36624 -s 1 -d 2 -p cbr -e 512 -c 1 -i 15 -a 1 -x {1.0 5.0 -1 ------- null}
r -t 0.366293333333333 -s 3 -d 5 -p cbr -e 512 -c 1 -i 6 -a 1 -x {1.0 5.0 5 ------- null}
r -t 0.369061333333333 -s 2 -d 3 -p cbr -e 512 -c 1 -i 8 -a 1 -x {1.0 5.0 7 ------- null}
+ -t 0.369061333333333 -s 3 -d 5 -p cbr -e 512 -c 1 -i 8 -a 1 -x {1.0 5.0 7 ------- null}
- -t 0.369061333333333 -s 3 -d 5 -p cbr -e 512 -c 1 -i 8 -a 1 -x {1.0 5.0 7 ------- null}
h -t 0.369061333333333 -s 3 -d 5 -p cbr -e 512 -c 1 -i 8 -a 1 -x {1.0 5.0 -1 ------- null}
r -t 0.378288 -s 1 -d 2 -p cbr -e 512 -c 1 -i 15 -a 1 -x {1.0 5.0 13 ------- null}
+ -t 0.378288 -s 2 -d 3 -p cbr -e 512 -c 1 -i 15 -a 1 -x {1.0 5.0 13 ------- null}
- -t 0.378288 -s 2 -d 3 -p cbr -e 512 -c 1 -i 15 -a 1 -x {1.0 5.0 13 ------- null}
h -t 0.378288 -s 2 -d 3 -p cbr -e 512 -c 1 -i 15 -a 1 -x {1.0 5.0 -1 ------- null}
+ -t 0.38672 -s 1 -d 2 -p cbr -e 512 -c 1 -i 16 -a 1 -x {1.0 5.0 14 ------- null}
- -t 0.38672 -s 1 -d 2 -p cbr -e 512 -c 1 -i 16 -a 1 -x {1.0 5.0 14 ------- null}
h -t 0.38672 -s 1 -d 2 -p cbr -e 512 -c 1 -i 16 -a 1 -x {1.0 5.0 -1 ------- null}
r -t 0.386773333333333 -s 3 -d 5 -p cbr -e 512 -c 1 -i 7 -a 1 -x {1.0 5.0 6 ------- null}
r -t 0.389541333333333 -s 2 -d 3 -p cbr -e 512 -c 1 -i 9 -a 1 -x {1.0 5.0 8 ------- null}
+ -t 0.389541333333333 -s 3 -d 5 -p cbr -e 512 -c 1 -i 9 -a 1 -x {1.0 5.0 8 ------- null}
- -t 0.389541333333333 -s 3 -d 5 -p cbr -e 512 -c 1 -i 9 -a 1 -x {1.0 5.0 8 ------- null}
h -t 0.389541333333333 -s 3 -d 5 -p cbr -e 512 -c 1 -i 9 -a 1 -x {1.0 5.0 -1 ------- null}
r -t 0.392506666666667 -s 4 -d 3 -p ack -e 40 -c 2 -i 14 -a 2 -x {4.0 0.0 0 ------- null}
+ -t 0.392506666666667 -s 3 -d 2 -p ack -e 40 -c 2 -i 14 -a 2 -x {4.0 0.0 0 ------- null}
- -t 0.392506666666667 -s 3 -d 2 -p ack -e 40 -c 2 -i 14 -a 2 -x {4.0 0.0 0 ------- null}
h -t 0.392506666666667 -s 3 -d 2 -p ack -e 40 -c 2 -i 14 -a 2 -x {4.0 0.0 -1 ------- null}
r -t 0.398768 -s 1 -d 2 -p cbr -e 512 -c 1 -i 16 -a 1 -x {1.0 5.0 14 ------- null}
+ -t 0.398768 -s 2 -d 3 -p cbr -e 512 -c 1 -i 16 -a 1 -x {1.0 5.0 14 ------- null}
- -t 0.398768 -s 2 -d 3 -p cbr -e 512 -c 1 -i 16 -a 1 -x {1.0 5.0 14 ------- null}
h -t 0.398768 -s 2 -d 3 -p cbr -e 512 -c 1 -i 16 -a 1 -x {1.0 5.0 -1 ------- null}
+ -t 0.4072 -s 1 -d 2 -p cbr -e 512 -c 1 -i 17 -a 1 -x {1.0 5.0 15 ------- null}
- -t 0.4072 -s 1 -d 2 -p cbr -e 512 -c 1 -i 17 -a 1 -x {1.0 5.0 15 ------- null}
h -t 0.4072 -s 1 -d 2 -p cbr -e 512 -c 1 -i 17 -a 1 -x {1.0 5.0 -1 ------- null}
r -t 0.407253333333333 -s 3 -d 5 -p cbr -e 512 -c 1 -i 8 -a 1 -x {1.0 5.0 7 ------- null}
r -t 0.410021333333333 -s 2 -d 3 -p cbr -e 512 -c 1 -i 10 -a 1 -x {1.0 5.0 9 ------- null}
+ -t 0.410021333333333 -s 3 -d 5 -p cbr -e 512 -c 1 -i 10 -a 1 -x {1.0 5.0 9 ------- null}
- -t 0.410021333333333 -s 3 -d 5 -p cbr -e 512 -c 1 -i 10 -a 1 -x {1.0 5.0 9 ------- null}
h -t 0.410021333333333 -s 3 -d 5 -p cbr -e 512 -c 1 -i 10 -a 1 -x {1.0 5.0 -1 ------- null}
r -t 0.419248 -s 1 -d 2 -p cbr -e 512 -c 1 -i 17 -a 1 -x {1.0 5.0 15 ------- null}
+ -t 0.419248 -s 2 -d 3 -p cbr -e 512 -c 1 -i 17 -a 1 -x {1.0 5.0 15 ------- null}
- -t 0.419248 -s 2 -d 3 -p cbr -e 512 -c 1 -i 17 -a 1 -x {1.0 5.0 15 ------- null}
h -t 0.419248 -s 2 -d 3 -p cbr -e 512 -c 1 -i 17 -a 1 -x {1.0 5.0 -1 ------- null}
+ -t 0.42768 -s 1 -d 2 -p cbr -e 512 -c 1 -i 18 -a 1 -x {1.0 5.0 16 ------- null}
- -t 0.42768 -s 1 -d 2 -p cbr -e 512 -c 1 -i 18 -a 1 -x {1.0 5.0 16 ------- null}
h -t 0.42768 -s 1 -d 2 -p cbr -e 512 -c 1 -i 18 -a 1 -x {1.0 5.0 -1 ------- null}
r -t 0.427733333333333 -s 3 -d 5 -p cbr -e 512 -c 1 -i 9 -a 1 -x {1.0 5.0 8 ------- null}
r -t 0.430501333333333 -s 2 -d 3 -p cbr -e 512 -c 1 -i 11 -a 1 -x {1.0 5.0 10 ------- null}
+ -t 0.430501333333333 -s 3 -d 5 -p cbr -e 512 -c 1 -i 11 -a 1 -x {1.0 5.0 10 ------- null}
- -t 0.430501333333333 -s 3 -d 5 -p cbr -e 512 -c 1 -i 11 -a 1 -x {1.0 5.0 10 ------- null}
h -t 0.430501333333333 -s 3 -d 5 -p cbr -e 512 -c 1 -i 11 -a 1 -x {1.0 5.0 -1 ------- null}
r -t 0.439728 -s 1 -d 2 -p cbr -e 512 -c 1 -i 18 -a 1 -x {1.0 5.0 16 ------- null}
+ -t 0.439728 -s 2 -d 3 -p cbr -e 512 -c 1 -i 18 -a 1 -x {1.0 5.0 16 ------- null}
- -t 0.439728 -s 2 -d 3 -p cbr -e 512 -c 1 -i 18 -a 1 -x {1.0 5.0 16 ------- null}
h -t 0.439728 -s 2 -d 3 -p cbr -e 512 -c 1 -i 18 -a 1 -x {1.0 5.0 -1 ------- null}
+ -t 0.44816 -s 1 -d 2 -p cbr -e 512 -c 1 -i 19 -a 1 -x {1.0 5.0 17 ------- null}
- -t 0.44816 -s 1 -d 2 -p cbr -e 512 -c 1 -i 19 -a 1 -x {1.0 5.0 17 ------- null}
h -t 0.44816 -s 1 -d 2 -p cbr -e 512 -c 1 -i 19 -a 1 -x {1.0 5.0 -1 ------- null}
r -t 0.448213333333333 -s 3 -d 5 -p cbr -e 512 -c 1 -i 10 -a 1 -x {1.0 5.0 9 ------- null}
r -t 0.450981333333333 -s 2 -d 3 -p cbr -e 512 -c 1 -i 12 -a 1 -x {1.0 5.0 11 ------- null}
+ -t 0.450981333333333 -s 3 -d 5 -p cbr -e 512 -c 1 -i 12 -a 1 -x {1.0 5.0 11 ------- null}
- -t 0.450981333333333 -s 3 -d 5 -p cbr -e 512 -c 1 -i 12 -a 1 -x {1.0 5.0 11 ------- null}
h -t 0.450981333333333 -s 3 -d 5 -p cbr -e 512 -c 1 -i 12 -a 1 -x {1.0 5.0 -1 ------- null}
r -t 0.460208 -s 1 -d 2 -p cbr -e 512 -c 1 -i 19 -a 1 -x {1.0 5.0 17 ------- null}
+ -t 0.460208 -s 2 -d 3 -p cbr -e 512 -c 1 -i 19 -a 1 -x {1.0 5.0 17 ------- null}
- -t 0.460208 -s 2 -d 3 -p cbr -e 512 -c 1 -i 19 -a 1 -x {1.0 5.0 17 ------- null}
h -t 0.460208 -s 2 -d 3 -p cbr -e 512 -c 1 -i 19 -a 1 -x {1.0 5.0 -1 ------- null}
+ -t 0.46864 -s 1 -d 2 -p cbr -e 512 -c 1 -i 20 -a 1 -x {1.0 5.0 18 ------- null}
- -t 0.46864 -s 1 -d 2 -p cbr -e 512 -c 1 -i 20 -a 1 -x {1.0 5.0 18 ------- null}
h -t 0.46864 -s 1 -d 2 -p cbr -e 512 -c 1 -i 20 -a 1 -x {1.0 5.0 -1 ------- null}
r -t 0.468693333333333 -s 3 -d 5 -p cbr -e 512 -c 1 -i 11 -a 1 -x {1.0 5.0 10 ------- null}
r -t 0.471461333333333 -s 2 -d 3 -p cbr -e 512 -c 1 -i 13 -a 1 -x {1.0 5.0 12 ------- null}
+ -t 0.471461333333333 -s 3 -d 5 -p cbr -e 512 -c 1 -i 13 -a 1 -x {1.0 5.0 12 ------- null}
- -t 0.471461333333333 -s 3 -d 5 -p cbr -e 512 -c 1 -i 13 -a 1 -x {1.0 5.0 12 ------- null}
h -t 0.471461333333333 -s 3 -d 5 -p cbr -e 512 -c 1 -i 13 -a 1 -x {1.0 5.0 -1 ------- null}
r -t 0.480688 -s 1 -d 2 -p cbr -e 512 -c 1 -i 20 -a 1 -x {1.0 5.0 18 ------- null}
+ -t 0.480688 -s 2 -d 3 -p cbr -e 512 -c 1 -i 20 -a 1 -x {1.0 5.0 18 ------- null}
- -t 0.480688 -s 2 -d 3 -p cbr -e 512 -c 1 -i 20 -a 1 -x {1.0 5.0 18 ------- null}
h -t 0.480688 -s 2 -d 3 -p cbr -e 512 -c 1 -i 20 -a 1 -x {1.0 5.0 -1 ------- null}
+ -t 0.48912 -s 1 -d 2 -p cbr -e 512 -c 1 -i 21 -a 1 -x {1.0 5.0 19 ------- null}
- -t 0.48912 -s 1 -d 2 -p cbr -e 512 -c 1 -i 21 -a 1 -x {1.0 5.0 19 ------- null}
h -t 0.48912 -s 1 -d 2 -p cbr -e 512 -c 1 -i 21 -a 1 -x {1.0 5.0 -1 ------- null}
r -t 0.489173333333333 -s 3 -d 5 -p cbr -e 512 -c 1 -i 12 -a 1 -x {1.0 5.0 11 ------- null}
r -t 0.491941333333333 -s 2 -d 3 -p cbr -e 512 -c 1 -i 15 -a 1 -x {1.0 5.0 13 ------- null}
+ -t 0.491941333333333 -s 3 -d 5 -p cbr -e 512 -c 1 -i 15 -a 1 -x {1.0 5.0 13 ------- null}
- -t 0.491941333333333 -s 3 -d 5 -p cbr -e 512 -c 1 -i 15 -a 1 -x {1.0 5.0 13 ------- null}
h -t 0.491941333333333 -s 3 -d 5 -p cbr -e 512 -c 1 -i 15 -a 1 -x {1.0 5.0 -1 ------- null}
r -t 0.493573333333333 -s 3 -d 2 -p ack -e 40 -c 2 -i 14 -a 2 -x {4.0 0.0 0 ------- null}
+ -t 0.493573333333333 -s 2 -d 0 -p ack -e 40 -c 2 -i 14 -a 2 -x {4.0 0.0 0 ------- null}
- -t 0.493573333333333 -s 2 -d 0 -p ack -e 40 -c 2 -i 14 -a 2 -x {4.0 0.0 0 ------- null}
h -t 0.493573333333333 -s 2 -d 0 -p ack -e 40 -c 2 -i 14 -a 2 -x {4.0 0.0 -1 ------- null}
r -t 0.501168 -s 1 -d 2 -p cbr -e 512 -c 1 -i 21 -a 1 -x {1.0 5.0 19 ------- null}
+ -t 0.501168 -s 2 -d 3 -p cbr -e 512 -c 1 -i 21 -a 1 -x {1.0 5.0 19 ------- null}
- -t 0.501168 -s 2 -d 3 -p cbr -e 512 -c 1 -i 21 -a 1 -x {1.0 5.0 19 ------- null}
h -t 0.501168 -s 2 -d 3 -p cbr -e 512 -c 1 -i 21 -a 1 -x {1.0 5.0 -1 ------- null}
r -t 0.503733333333333 -s 2 -d 0 -p ack -e 40 -c 2 -i 14 -a 2 -x {4.0 0.0 0 ------- null}
+ -t 0.503733333333333 -s 0 -d 2 -p tcp -e 552 -c 2 -i 22 -a 2 -x {0.0 4.0 1 ------- null}
- -t 0.503733333333333 -s 0 -d 2 -p tcp -e 552 -c 2 -i 22 -a 2 -x {0.0 4.0 1 ------- null}
h -t 0.503733333333333 -s 0 -d 2 -p tcp -e 552 -c 2 -i 22 -a 2 -x {0.0 4.0 -1 ------- null}
+ -t 0.503733333333333 -s 0 -d 2 -p tcp -e 552 -c 2 -i 23 -a 2 -x {0.0 4.0 2 ------- null}
- -t 0.505941333333333 -s 0 -d 2 -p tcp -e 552 -c 2 -i 23 -a 2 -x {0.0 4.0 2 ------- null}
h -t 0.505941333333333 -s 0 -d 2 -p tcp -e 552 -c 2 -i 23 -a 2 -x {0.0 4.0 -1 ------- null}
+ -t 0.5096 -s 1 -d 2 -p cbr -e 512 -c 1 -i 24 -a 1 -x {1.0 5.0 20 ------- null}
- -t 0.5096 -s 1 -d 2 -p cbr -e 512 -c 1 -i 24 -a 1 -x {1.0 5.0 20 ------- null}
h -t 0.5096 -s 1 -d 2 -p cbr -e 512 -c 1 -i 24 -a 1 -x {1.0 5.0 -1 ------- null}
r -t 0.509653333333333 -s 3 -d 5 -p cbr -e 512 -c 1 -i 13 -a 1 -x {1.0 5.0 12 ------- null}
r -t 0.512421333333333 -s 2 -d 3 -p cbr -e 512 -c 1 -i 16 -a 1 -x {1.0 5.0 14 ------- null}
+ -t 0.512421333333333 -s 3 -d 5 -p cbr -e 512 -c 1 -i 16 -a 1 -x {1.0 5.0 14 ------- null}
- -t 0.512421333333333 -s 3 -d 5 -p cbr -e 512 -c 1 -i 16 -a 1 -x {1.0 5.0 14 ------- null}
h -t 0.512421333333333 -s 3 -d 5 -p cbr -e 512 -c 1 -i 16 -a 1 -x {1.0 5.0 -1 ------- null}
r -t 0.515941333333333 -s 0 -d 2 -p tcp -e 552 -c 2 -i 22 -a 2 -x {0.0 4.0 1 ------- null}
+ -t 0.515941333333333 -s 2 -d 3 -p tcp -e 552 -c 2 -i 22 -a 2 -x {0.0 4.0 1 ------- null}
- -t 0.515941333333333 -s 2 -d 3 -p tcp -e 552 -c 2 -i 22 -a 2 -x {0.0 4.0 1 ------- null}
h -t 0.515941333333333 -s 2 -d 3 -p tcp -e 552 -c 2 -i 22 -a 2 -x {0.0 4.0 -1 ------- null}
r -t 0.518149333333333 -s 0 -d 2 -p tcp -e 552 -c 2 -i 23 -a 2 -x {0.0 4.0 2 ------- null}
+ -t 0.518149333333333 -s 2 -d 3 -p tcp -e 552 -c 2 -i 23 -a 2 -x {0.0 4.0 2 ------- null}
r -t 0.521648 -s 1 -d 2 -p cbr -e 512 -c 1 -i 24 -a 1 -x {1.0 5.0 20 ------- null}
+ -t 0.521648 -s 2 -d 3 -p cbr -e 512 -c 1 -i 24 -a 1 -x {1.0 5.0 20 ------- null}
+ -t 0.53008 -s 1 -d 2 -p cbr -e 512 -c 1 -i 25 -a 1 -x {1.0 5.0 21 ------- null}
- -t 0.53008 -s 1 -d 2 -p cbr -e 512 -c 1 -i 25 -a 1 -x {1.0 5.0 21 ------- null}
h -t 0.53008 -s 1 -d 2 -p cbr -e 512 -c 1 -i 25 -a 1 -x {1.0 5.0 -1 ------- null}
r -t 0.530133333333333 -s 3 -d 5 -p cbr -e 512 -c 1 -i 15 -a 1 -x {1.0 5.0 13 ------- null}
- -t 0.530661333333333 -s 2 -d 3 -p tcp -e 552 -c 2 -i 23 -a 2 -x {0.0 4.0 2 ------- null}
h -t 0.530661333333333 -s 2 -d 3 -p tcp -e 552 -c 2 -i 23 -a 2 -x {0.0 4.0 -1 ------- null}
r -t 0.532901333333333 -s 2 -d 3 -p cbr -e 512 -c 1 -i 17 -a 1 -x {1.0 5.0 15 ------- null}
+ -t 0.532901333333333 -s 3 -d 5 -p cbr -e 512 -c 1 -i 17 -a 1 -x {1.0 5.0 15 ------- null}
- -t 0.532901333333333 -s 3 -d 5 -p cbr -e 512 -c 1 -i 17 -a 1 -x {1.0 5.0 15 ------- null}
h -t 0.532901333333333 -s 3 -d 5 -p cbr -e 512 -c 1 -i 17 -a 1 -x {1.0 5.0 -1 ------- null}
r -t 0.542128 -s 1 -d 2 -p cbr -e 512 -c 1 -i 25 -a 1 -x {1.0 5.0 21 ------- null}
+ -t 0.542128 -s 2 -d 3 -p cbr -e 512 -c 1 -i 25 -a 1 -x {1.0 5.0 21 ------- null}
- -t 0.545381333333333 -s 2 -d 3 -p cbr -e 512 -c 1 -i 24 -a 1 -x {1.0 5.0 20 ------- null}
h -t 0.545381333333333 -s 2 -d 3 -p cbr -e 512 -c 1 -i 24 -a 1 -x {1.0 5.0 -1 ------- null}
+ -t 0.55056 -s 1 -d 2 -p cbr -e 512 -c 1 -i 26 -a 1 -x {1.0 5.0 22 ------- null}
- -t 0.55056 -s 1 -d 2 -p cbr -e 512 -c 1 -i 26 -a 1 -x {1.0 5.0 22 ------- null}
h -t 0.55056 -s 1 -d 2 -p cbr -e 512 -c 1 -i 26 -a 1 -x {1.0 5.0 -1 ------- null}
r -t 0.550613333333333 -s 3 -d 5 -p cbr -e 512 -c 1 -i 16 -a 1 -x {1.0 5.0 14 ------- null}
r -t 0.553381333333333 -s 2 -d 3 -p cbr -e 512 -c 1 -i 18 -a 1 -x {1.0 5.0 16 ------- null}
+ -t 0.553381333333333 -s 3 -d 5 -p cbr -e 512 -c 1 -i 18 -a 1 -x {1.0 5.0 16 ------- null}
- -t 0.553381333333333 -s 3 -d 5 -p cbr -e 512 -c 1 -i 18 -a 1 -x {1.0 5.0 16 ------- null}
h -t 0.553381333333333 -s 3 -d 5 -p cbr -e 512 -c 1 -i 18 -a 1 -x {1.0 5.0 -1 ------- null}
- -t 0.559034666666666 -s 2 -d 3 -p cbr -e 512 -c 1 -i 25 -a 1 -x {1.0 5.0 21 ------- null}
h -t 0.559034666666666 -s 2 -d 3 -p cbr -e 512 -c 1 -i 25 -a 1 -x {1.0 5.0 -1 ------- null}
r -t 0.562608 -s 1 -d 2 -p cbr -e 512 -c 1 -i 26 -a 1 -x {1.0 5.0 22 ------- null}
+ -t 0.562608 -s 2 -d 3 -p cbr -e 512 -c 1 -i 26 -a 1 -x {1.0 5.0 22 ------- null}
+ -t 0.57104 -s 1 -d 2 -p cbr -e 512 -c 1 -i 27 -a 1 -x {1.0 5.0 23 ------- null}
- -t 0.57104 -s 1 -d 2 -p cbr -e 512 -c 1 -i 27 -a 1 -x {1.0 5.0 23 ------- null}
h -t 0.57104 -s 1 -d 2 -p cbr -e 512 -c 1 -i 27 -a 1 -x {1.0 5.0 -1 ------- null}
r -t 0.571093333333333 -s 3 -d 5 -p cbr -e 512 -c 1 -i 17 -a 1 -x {1.0 5.0 15 ------- null}
- -t 0.572688 -s 2 -d 3 -p cbr -e 512 -c 1 -i 26 -a 1 -x {1.0 5.0 22 ------- null}
h -t 0.572688 -s 2 -d 3 -p cbr -e 512 -c 1 -i 26 -a 1 -x {1.0 5.0 -1 ------- null}
r -t 0.573861333333333 -s 2 -d 3 -p cbr -e 512 -c 1 -i 19 -a 1 -x {1.0 5.0 17 ------- null}
+ -t 0.573861333333333 -s 3 -d 5 -p cbr -e 512 -c 1 -i 19 -a 1 -x {1.0 5.0 17 ------- null}
- -t 0.573861333333333 -s 3 -d 5 -p cbr -e 512 -c 1 -i 19 -a 1 -x {1.0 5.0 17 ------- null}
h -t 0.573861333333333 -s 3 -d 5 -p cbr -e 512 -c 1 -i 19 -a 1 -x {1.0 5.0 -1 ------- null}
r -t 0.583088 -s 1 -d 2 -p cbr -e 512 -c 1 -i 27 -a 1 -x {1.0 5.0 23 ------- null}
+ -t 0.583088 -s 2 -d 3 -p cbr -e 512 -c 1 -i 27 -a 1 -x {1.0 5.0 23 ------- null}
- -t 0.586341333333333 -s 2 -d 3 -p cbr -e 512 -c 1 -i 27 -a 1 -x {1.0 5.0 23 ------- null}
h -t 0.586341333333333 -s 2 -d 3 -p cbr -e 512 -c 1 -i 27 -a 1 -x {1.0 5.0 -1 ------- null}
+ -t 0.59152 -s 1 -d 2 -p cbr -e 512 -c 1 -i 28 -a 1 -x {1.0 5.0 24 ------- null}
- -t 0.59152 -s 1 -d 2 -p cbr -e 512 -c 1 -i 28 -a 1 -x {1.0 5.0 24 ------- null}
h -t 0.59152 -s 1 -d 2 -p cbr -e 512 -c 1 -i 28 -a 1 -x {1.0 5.0 -1 ------- null}
r -t 0.591573333333333 -s 3 -d 5 -p cbr -e 512 -c 1 -i 18 -a 1 -x {1.0 5.0 16 ------- null}
r -t 0.594341333333333 -s 2 -d 3 -p cbr -e 512 -c 1 -i 20 -a 1 -x {1.0 5.0 18 ------- null}
+ -t 0.594341333333333 -s 3 -d 5 -p cbr -e 512 -c 1 -i 20 -a 1 -x {1.0 5.0 18 ------- null}
- -t 0.594341333333333 -s 3 -d 5 -p cbr -e 512 -c 1 -i 20 -a 1 -x {1.0 5.0 18 ------- null}
h -t 0.594341333333333 -s 3 -d 5 -p cbr -e 512 -c 1 -i 20 -a 1 -x {1.0 5.0 -1 ------- null}
r -t 0.603568 -s 1 -d 2 -p cbr -e 512 -c 1 -i 28 -a 1 -x {1.0 5.0 24 ------- null}
+ -t 0.603568 -s 2 -d 3 -p cbr -e 512 -c 1 -i 28 -a 1 -x {1.0 5.0 24 ------- null}
- -t 0.603568 -s 2 -d 3 -p cbr -e 512 -c 1 -i 28 -a 1 -x {1.0 5.0 24 ------- null}
h -t 0.603568 -s 2 -d 3 -p cbr -e 512 -c 1 -i 28 -a 1 -x {1.0 5.0 -1 ------- null}
+ -t 0.612 -s 1 -d 2 -p cbr -e 512 -c 1 -i 29 -a 1 -x {1.0 5.0 25 ------- null}
- -t 0.612 -s 1 -d 2 -p cbr -e 512 -c 1 -i 29 -a 1 -x {1.0 5.0 25 ------- null}
h -t 0.612 -s 1 -d 2 -p cbr -e 512 -c 1 -i 29 -a 1 -x {1.0 5.0 -1 ------- null}
r -t 0.612053333333333 -s 3 -d 5 -p cbr -e 512 -c 1 -i 19 -a 1 -x {1.0 5.0 17 ------- null}
r -t 0.614821333333333 -s 2 -d 3 -p cbr -e 512 -c 1 -i 21 -a 1 -x {1.0 5.0 19 ------- null}
+ -t 0.614821333333333 -s 3 -d 5 -p cbr -e 512 -c 1 -i 21 -a 1 -x {1.0 5.0 19 ------- null}
- -t 0.614821333333333 -s 3 -d 5 -p cbr -e 512 -c 1 -i 21 -a 1 -x {1.0 5.0 19 ------- null}
h -t 0.614821333333333 -s 3 -d 5 -p cbr -e 512 -c 1 -i 21 -a 1 -x {1.0 5.0 -1 ------- null}
r -t 0.624048 -s 1 -d 2 -p cbr -e 512 -c 1 -i 29 -a 1 -x {1.0 5.0 25 ------- null}
+ -t 0.624048 -s 2 -d 3 -p cbr -e 512 -c 1 -i 29 -a 1 -x {1.0 5.0 25 ------- null}
- -t 0.624048 -s 2 -d 3 -p cbr -e 512 -c 1 -i 29 -a 1 -x {1.0 5.0 25 ------- null}
h -t 0.624048 -s 2 -d 3 -p cbr -e 512 -c 1 -i 29 -a 1 -x {1.0 5.0 -1 ------- null}
r -t 0.630661333333333 -s 2 -d 3 -p tcp -e 552 -c 2 -i 22 -a 2 -x {0.0 4.0 1 ------- null}
+ -t 0.630661333333333 -s 3 -d 4 -p tcp -e 552 -c 2 -i 22 -a 2 -x {0.0 4.0 1 ------- null}
- -t 0.630661333333333 -s 3 -d 4 -p tcp -e 552 -c 2 -i 22 -a 2 -x {0.0 4.0 1 ------- null}
h -t 0.630661333333333 -s 3 -d 4 -p tcp -e 552 -c 2 -i 22 -a 2 -x {0.0 4.0 -1 ------- null}
+ -t 0.63248 -s 1 -d 2 -p cbr -e 512 -c 1 -i 30 -a 1 -x {1.0 5.0 26 ------- null}
- -t 0.63248 -s 1 -d 2 -p cbr -e 512 -c 1 -i 30 -a 1 -x {1.0 5.0 26 ------- null}
h -t 0.63248 -s 1 -d 2 -p cbr -e 512 -c 1 -i 30 -a 1 -x {1.0 5.0 -1 ------- null}
r -t 0.632533333333333 -s 3 -d 5 -p cbr -e 512 -c 1 -i 20 -a 1 -x {1.0 5.0 18 ------- null}
r -t 0.644528 -s 1 -d 2 -p cbr -e 512 -c 1 -i 30 -a 1 -x {1.0 5.0 26 ------- null}
+ -t 0.644528 -s 2 -d 3 -p cbr -e 512 -c 1 -i 30 -a 1 -x {1.0 5.0 26 ------- null}
- -t 0.644528 -s 2 -d 3 -p cbr -e 512 -c 1 -i 30 -a 1 -x {1.0 5.0 26 ------- null}
h -t 0.644528 -s 2 -d 3 -p cbr -e 512 -c 1 -i 30 -a 1 -x {1.0 5.0 -1 ------- null}
r -t 0.645381333333333 -s 2 -d 3 -p tcp -e 552 -c 2 -i 23 -a 2 -x {0.0 4.0 2 ------- null}
+ -t 0.645381333333333 -s 3 -d 4 -p tcp -e 552 -c 2 -i 23 -a 2 -x {0.0 4.0 2 ------- null}
- -t 0.645381333333333 -s 3 -d 4 -p tcp -e 552 -c 2 -i 23 -a 2 -x {0.0 4.0 2 ------- null}
h -t 0.645381333333333 -s 3 -d 4 -p tcp -e 552 -c 2 -i 23 -a 2 -x {0.0 4.0 -1 ------- null}
+ -t 0.65296 -s 1 -d 2 -p cbr -e 512 -c 1 -i 31 -a 1 -x {1.0 5.0 27 ------- null}
- -t 0.65296 -s 1 -d 2 -p cbr -e 512 -c 1 -i 31 -a 1 -x {1.0 5.0 27 ------- null}
h -t 0.65296 -s 1 -d 2 -p cbr -e 512 -c 1 -i 31 -a 1 -x {1.0 5.0 -1 ------- null}
r -t 0.653013333333333 -s 3 -d 5 -p cbr -e 512 -c 1 -i 21 -a 1 -x {1.0 5.0 19 ------- null}
r -t 0.659034666666667 -s 2 -d 3 -p cbr -e 512 -c 1 -i 24 -a 1 -x {1.0 5.0 20 ------- null}
+ -t 0.659034666666667 -s 3 -d 5 -p cbr -e 512 -c 1 -i 24 -a 1 -x {1.0 5.0 20 ------- null}