v 0.3 eval {set sim_annotation {0.29999999999999999 4 join-group 1073741824}}
+ 0.4 0 1 cbr 210 ------- 1 0.1 1073741824.0 0 0
- 0.4 0 1 cbr 210 ------- 1 0.1 1073741824.0 0 0
+ 0.4 0 2 cbr 210 ------- 1 0.1 1073741824.0 0 0
- 0.4 0 2 cbr 210 ------- 1 0.1 1073741824.0 0 0
+ 0.4 0 3 cbr 210 ------- 1 0.1 1073741824.0 0 0
- 0.4 0 3 cbr 210 ------- 1 0.1 1073741824.0 0 0
+ 0.40375 0 1 cbr 210 ------- 1 0.1 1073741824.0 1 1
- 0.40375 0 1 cbr 210 ------- 1 0.1 1073741824.0 1 1
+ 0.40375 0 2 cbr 210 ------- 1 0.1 1073741824.0 1 1
- 0.40375 0 2 cbr 210 ------- 1 0.1 1073741824.0 1 1
+ 0.40375 0 3 cbr 210 ------- 1 0.1 1073741824.0 1 1
- 0.4056 0 3 cbr 210 ------- 1 0.1 1073741824.0 1 1
+ 0.4075 0 1 cbr 210 ------- 1 0.1 1073741824.0 2 2
- 0.4075 0 1 cbr 210 ------- 1 0.1 1073741824.0 2 2
+ 0.4075 0 2 cbr 210 ------- 1 0.1 1073741824.0 2 2
- 0.4075 0 2 cbr 210 ------- 1 0.1 1073741824.0 2 2
+ 0.4075 0 3 cbr 210 ------- 1 0.1 1073741824.0 2 2
r 0.41084 0 1 cbr 210 ------- 1 0.1 1073741824.0 0 0
+ 0.41084 1 4 cbr 210 ------- 1 0.1 1073741824.0 0 0
- 0.41084 1 4 cbr 210 ------- 1 0.1 1073741824.0 0 0
r 0.41084 0 2 cbr 210 ------- 1 0.1 1073741824.0 0 0
+ 0.41084 2 0 prune 80 ------- 30 2.0 0.0 -1 3
- 0.41084 2 0 prune 80 ------- 30 2.0 0.0 -1 3
- 0.4112 0 3 cbr 210 ------- 1 0.1 1073741824.0 2 2
+ 0.41125 0 1 cbr 210 ------- 1 0.1 1073741824.0 3 4
- 0.41125 0 1 cbr 210 ------- 1 0.1 1073741824.0 3 4
+ 0.41125 0 2 cbr 210 ------- 1 0.1 1073741824.0 3 4
- 0.41125 0 2 cbr 210 ------- 1 0.1 1073741824.0 3 4
+ 0.41125 0 3 cbr 210 ------- 1 0.1 1073741824.0 3 4
r 0.41459 0 1 cbr 210 ------- 1 0.1 1073741824.0 1 1
+ 0.41459 1 4 cbr 210 ------- 1 0.1 1073741824.0 1 1
r 0.41459 0 2 cbr 210 ------- 1 0.1 1073741824.0 1 1
+ 0.41459 2 0 prune 80 ------- 30 2.0 0.0 -1 5
- 0.41459 2 0 prune 80 ------- 30 2.0 0.0 -1 5
+ 0.415 0 1 cbr 210 ------- 1 0.1 1073741824.0 4 6
- 0.415 0 1 cbr 210 ------- 1 0.1 1073741824.0 4 6
+ 0.415 0 2 cbr 210 ------- 1 0.1 1073741824.0 4 6
- 0.415 0 2 cbr 210 ------- 1 0.1 1073741824.0 4 6
+ 0.415 0 3 cbr 210 ------- 1 0.1 1073741824.0 4 6
- 0.41644 1 4 cbr 210 ------- 1 0.1 1073741824.0 1 1
- 0.4168 0 3 cbr 210 ------- 1 0.1 1073741824.0 3 4
r 0.41834 0 1 cbr 210 ------- 1 0.1 1073741824.0 2 2
+ 0.41834 1 4 cbr 210 ------- 1 0.1 1073741824.0 2 2
r 0.41834 0 2 cbr 210 ------- 1 0.1 1073741824.0 2 2
+ 0.41834 2 0 prune 80 ------- 30 2.0 0.0 -1 7
- 0.41834 2 0 prune 80 ------- 30 2.0 0.0 -1 7
+ 0.41875 0 1 cbr 210 ------- 1 0.1 1073741824.0 5 8
- 0.41875 0 1 cbr 210 ------- 1 0.1 1073741824.0 5 8
+ 0.41875 0 2 cbr 210 ------- 1 0.1 1073741824.0 5 8
- 0.41875 0 2 cbr 210 ------- 1 0.1 1073741824.0 5 8
+ 0.41875 0 3 cbr 210 ------- 1 0.1 1073741824.0 5 8
r 0.42116 2 0 prune 80 ------- 30 2.0 0.0 -1 3
- 0.42204 1 4 cbr 210 ------- 1 0.1 1073741824.0 2 2
r 0.42209 0 1 cbr 210 ------- 1 0.1 1073741824.0 3 4
+ 0.42209 1 4 cbr 210 ------- 1 0.1 1073741824.0 3 4
r 0.42209 0 2 cbr 210 ------- 1 0.1 1073741824.0 3 4
+ 0.42209 2 0 prune 80 ------- 30 2.0 0.0 -1 9
- 0.42209 2 0 prune 80 ------- 30 2.0 0.0 -1 9
- 0.4224 0 3 cbr 210 ------- 1 0.1 1073741824.0 4 6
+ 0.4225 0 1 cbr 210 ------- 1 0.1 1073741824.0 6 10
- 0.4225 0 1 cbr 210 ------- 1 0.1 1073741824.0 6 10
+ 0.4225 0 3 cbr 210 ------- 1 0.1 1073741824.0 6 10
r 0.42491 2 0 prune 80 ------- 30 2.0 0.0 -1 5
r 0.42584 0 1 cbr 210 ------- 1 0.1 1073741824.0 4 6
+ 0.42584 1 4 cbr 210 ------- 1 0.1 1073741824.0 4 6
r 0.42584 0 2 cbr 210 ------- 1 0.1 1073741824.0 4 6
+ 0.42584 2 0 prune 80 ------- 30 2.0 0.0 -1 11
- 0.42584 2 0 prune 80 ------- 30 2.0 0.0 -1 11
+ 0.42625 0 1 cbr 210 ------- 1 0.1 1073741824.0 7 12
- 0.42625 0 1 cbr 210 ------- 1 0.1 1073741824.0 7 12
+ 0.42625 0 3 cbr 210 ------- 1 0.1 1073741824.0 7 12
- 0.42764 1 4 cbr 210 ------- 1 0.1 1073741824.0 3 4
- 0.428 0 3 cbr 210 ------- 1 0.1 1073741824.0 5 8
r 0.42866 2 0 prune 80 ------- 30 2.0 0.0 -1 7
r 0.42959 0 1 cbr 210 ------- 1 0.1 1073741824.0 5 8
+ 0.42959 1 4 cbr 210 ------- 1 0.1 1073741824.0 5 8
r 0.42959 0 2 cbr 210 ------- 1 0.1 1073741824.0 5 8
+ 0.42959 2 0 prune 80 ------- 30 2.0 0.0 -1 13
- 0.42959 2 0 prune 80 ------- 30 2.0 0.0 -1 13
+ 0.43 0 1 cbr 210 ------- 1 0.1 1073741824.0 8 14
- 0.43 0 1 cbr 210 ------- 1 0.1 1073741824.0 8 14
+ 0.43 0 3 cbr 210 ------- 1 0.1 1073741824.0 8 14
r 0.43241 2 0 prune 80 ------- 30 2.0 0.0 -1 9
- 0.43324 1 4 cbr 210 ------- 1 0.1 1073741824.0 4 6
r 0.43334 0 1 cbr 210 ------- 1 0.1 1073741824.0 6 10
+ 0.43334 1 4 cbr 210 ------- 1 0.1 1073741824.0 6 10
- 0.4336 0 3 cbr 210 ------- 1 0.1 1073741824.0 6 10
+ 0.43375 0 1 cbr 210 ------- 1 0.1 1073741824.0 9 15
- 0.43375 0 1 cbr 210 ------- 1 0.1 1073741824.0 9 15
+ 0.43375 0 3 cbr 210 ------- 1 0.1 1073741824.0 9 15
r 0.43616 2 0 prune 80 ------- 30 2.0 0.0 -1 11
r 0.43709 0 1 cbr 210 ------- 1 0.1 1073741824.0 7 12
+ 0.43709 1 4 cbr 210 ------- 1 0.1 1073741824.0 7 12
+ 0.4375 0 1 cbr 210 ------- 1 0.1 1073741824.0 10 16
- 0.4375 0 1 cbr 210 ------- 1 0.1 1073741824.0 10 16
+ 0.4375 0 3 cbr 210 ------- 1 0.1 1073741824.0 10 16
- 0.43884 1 4 cbr 210 ------- 1 0.1 1073741824.0 5 8
- 0.4392 0 3 cbr 210 ------- 1 0.1 1073741824.0 7 12
r 0.43991 2 0 prune 80 ------- 30 2.0 0.0 -1 13
r 0.44084 0 1 cbr 210 ------- 1 0.1 1073741824.0 8 14
+ 0.44084 1 4 cbr 210 ------- 1 0.1 1073741824.0 8 14
+ 0.44125 0 1 cbr 210 ------- 1 0.1 1073741824.0 11 17
- 0.44125 0 1 cbr 210 ------- 1 0.1 1073741824.0 11 17
+ 0.44125 0 3 cbr 210 ------- 1 0.1 1073741824.0 11 17
- 0.44444 1 4 cbr 210 ------- 1 0.1 1073741824.0 6 10
r 0.44459 0 1 cbr 210 ------- 1 0.1 1073741824.0 9 15
+ 0.44459 1 4 cbr 210 ------- 1 0.1 1073741824.0 9 15
- 0.4448 0 3 cbr 210 ------- 1 0.1 1073741824.0 8 14
+ 0.445 0 1 cbr 210 ------- 1 0.1 1073741824.0 12 18
- 0.445 0 1 cbr 210 ------- 1 0.1 1073741824.0 12 18
+ 0.445 0 3 cbr 210 ------- 1 0.1 1073741824.0 12 18
r 0.44834 0 1 cbr 210 ------- 1 0.1 1073741824.0 10 16
+ 0.44834 1 4 cbr 210 ------- 1 0.1 1073741824.0 10 16
+ 0.44875 0 1 cbr 210 ------- 1 0.1 1073741824.0 13 19
- 0.44875 0 1 cbr 210 ------- 1 0.1 1073741824.0 13 19
+ 0.44875 0 3 cbr 210 ------- 1 0.1 1073741824.0 13 19
- 0.45004 1 4 cbr 210 ------- 1 0.1 1073741824.0 7 12
- 0.4504 0 3 cbr 210 ------- 1 0.1 1073741824.0 9 15
r 0.45209 0 1 cbr 210 ------- 1 0.1 1073741824.0 11 17
+ 0.45209 1 4 cbr 210 ------- 1 0.1 1073741824.0 11 17
+ 0.4525 0 1 cbr 210 ------- 1 0.1 1073741824.0 14 20
- 0.4525 0 1 cbr 210 ------- 1 0.1 1073741824.0 14 20
+ 0.4525 0 3 cbr 210 ------- 1 0.1 1073741824.0 14 20
- 0.45564 1 4 cbr 210 ------- 1 0.1 1073741824.0 8 14
r 0.45584 0 1 cbr 210 ------- 1 0.1 1073741824.0 12 18
+ 0.45584 1 4 cbr 210 ------- 1 0.1 1073741824.0 12 18
- 0.456 0 3 cbr 210 ------- 1 0.1 1073741824.0 10 16
+ 0.45625 0 1 cbr 210 ------- 1 0.1 1073741824.0 15 21
- 0.45625 0 1 cbr 210 ------- 1 0.1 1073741824.0 15 21
+ 0.45625 0 3 cbr 210 ------- 1 0.1 1073741824.0 15 21
r 0.45959 0 1 cbr 210 ------- 1 0.1 1073741824.0 13 19
+ 0.45959 1 4 cbr 210 ------- 1 0.1 1073741824.0 13 19
+ 0.46 0 1 cbr 210 ------- 1 0.1 1073741824.0 16 22
- 0.46 0 1 cbr 210 ------- 1 0.1 1073741824.0 16 22
+ 0.46 0 3 cbr 210 ------- 1 0.1 1073741824.0 16 22
- 0.46124 1 4 cbr 210 ------- 1 0.1 1073741824.0 9 15
- 0.4616 0 3 cbr 210 ------- 1 0.1 1073741824.0 11 17
r 0.46334 0 1 cbr 210 ------- 1 0.1 1073741824.0 14 20
+ 0.46334 1 4 cbr 210 ------- 1 0.1 1073741824.0 14 20
+ 0.46375 0 1 cbr 210 ------- 1 0.1 1073741824.0 17 23
- 0.46375 0 1 cbr 210 ------- 1 0.1 1073741824.0 17 23
+ 0.46375 0 3 cbr 210 ------- 1 0.1 1073741824.0 17 23
- 0.46684 1 4 cbr 210 ------- 1 0.1 1073741824.0 10 16
r 0.46709 0 1 cbr 210 ------- 1 0.1 1073741824.0 15 21
+ 0.46709 1 4 cbr 210 ------- 1 0.1 1073741824.0 15 21
- 0.4672 0 3 cbr 210 ------- 1 0.1 1073741824.0 12 18
+ 0.4675 0 1 cbr 210 ------- 1 0.1 1073741824.0 18 24
- 0.4675 0 1 cbr 210 ------- 1 0.1 1073741824.0 18 24
+ 0.4675 0 3 cbr 210 ------- 1 0.1 1073741824.0 18 24
r 0.47084 0 1 cbr 210 ------- 1 0.1 1073741824.0 16 22
+ 0.47084 1 4 cbr 210 ------- 1 0.1 1073741824.0 16 22
+ 0.47125 0 1 cbr 210 ------- 1 0.1 1073741824.0 19 25
- 0.47125 0 1 cbr 210 ------- 1 0.1 1073741824.0 19 25
+ 0.47125 0 3 cbr 210 ------- 1 0.1 1073741824.0 19 25
- 0.47244 1 4 cbr 210 ------- 1 0.1 1073741824.0 11 17
- 0.4728 0 3 cbr 210 ------- 1 0.1 1073741824.0 13 19
r 0.47459 0 1 cbr 210 ------- 1 0.1 1073741824.0 17 23
+ 0.47459 1 4 cbr 210 ------- 1 0.1 1073741824.0 17 23
+ 0.475 0 1 cbr 210 ------- 1 0.1 1073741824.0 20 26
- 0.475 0 1 cbr 210 ------- 1 0.1 1073741824.0 20 26
+ 0.475 0 3 cbr 210 ------- 1 0.1 1073741824.0 20 26
- 0.47804 1 4 cbr 210 ------- 1 0.1 1073741824.0 12 18
r 0.47834 0 1 cbr 210 ------- 1 0.1 1073741824.0 18 24
+ 0.47834 1 4 cbr 210 ------- 1 0.1 1073741824.0 18 24
- 0.4784 0 3 cbr 210 ------- 1 0.1 1073741824.0 14 20
+ 0.47875 0 1 cbr 210 ------- 1 0.1 1073741824.0 21 27
- 0.47875 0 1 cbr 210 ------- 1 0.1 1073741824.0 21 27
+ 0.47875 0 3 cbr 210 ------- 1 0.1 1073741824.0 21 27
r 0.48209 0 1 cbr 210 ------- 1 0.1 1073741824.0 19 25
+ 0.48209 1 4 cbr 210 ------- 1 0.1 1073741824.0 19 25
+ 0.4825 0 1 cbr 210 ------- 1 0.1 1073741824.0 22 28
- 0.4825 0 1 cbr 210 ------- 1 0.1 1073741824.0 22 28
+ 0.4825 0 3 cbr 210 ------- 1 0.1 1073741824.0 22 28
- 0.48364 1 4 cbr 210 ------- 1 0.1 1073741824.0 13 19
- 0.484 0 3 cbr 210 ------- 1 0.1 1073741824.0 15 21
r 0.48584 0 1 cbr 210 ------- 1 0.1 1073741824.0 20 26
+ 0.48584 1 4 cbr 210 ------- 1 0.1 1073741824.0 20 26
+ 0.48625 0 1 cbr 210 ------- 1 0.1 1073741824.0 23 29
- 0.48625 0 1 cbr 210 ------- 1 0.1 1073741824.0 23 29
+ 0.48625 0 3 cbr 210 ------- 1 0.1 1073741824.0 23 29
- 0.48924 1 4 cbr 210 ------- 1 0.1 1073741824.0 14 20
r 0.48959 0 1 cbr 210 ------- 1 0.1 1073741824.0 21 27
+ 0.48959 1 4 cbr 210 ------- 1 0.1 1073741824.0 21 27
- 0.4896 0 3 cbr 210 ------- 1 0.1 1073741824.0 16 22
+ 0.49 0 1 cbr 210 ------- 1 0.1 1073741824.0 24 30
- 0.49 0 1 cbr 210 ------- 1 0.1 1073741824.0 24 30
+ 0.49 0 3 cbr 210 ------- 1 0.1 1073741824.0 24 30
r 0.49334 0 1 cbr 210 ------- 1 0.1 1073741824.0 22 28
+ 0.49334 1 4 cbr 210 ------- 1 0.1 1073741824.0 22 28
+ 0.49375 0 1 cbr 210 ------- 1 0.1 1073741824.0 25 31
- 0.49375 0 1 cbr 210 ------- 1 0.1 1073741824.0 25 31
+ 0.49375 0 3 cbr 210 ------- 1 0.1 1073741824.0 25 31
- 0.49484 1 4 cbr 210 ------- 1 0.1 1073741824.0 15 21
- 0.4952 0 3 cbr 210 ------- 1 0.1 1073741824.0 17 23
r 0.49709 0 1 cbr 210 ------- 1 0.1 1073741824.0 23 29
+ 0.49709 1 4 cbr 210 ------- 1 0.1 1073741824.0 23 29
+ 0.4975 0 1 cbr 210 ------- 1 0.1 1073741824.0 26 32
- 0.4975 0 1 cbr 210 ------- 1 0.1 1073741824.0 26 32
+ 0.4975 0 3 cbr 210 ------- 1 0.1 1073741824.0 26 32
v 0.5 eval {set sim_annotation {0.5 4 leave-group 1073741824}}
- 0.50044 1 4 cbr 210 ------- 1 0.1 1073741824.0 16 22
- 0.5008 0 3 cbr 210 ------- 1 0.1 1073741824.0 18 24
r 0.50084 0 1 cbr 210 ------- 1 0.1 1073741824.0 24 30
+ 0.50084 1 4 cbr 210 ------- 1 0.1 1073741824.0 24 30
+ 0.50125 0 1 cbr 210 ------- 1 0.1 1073741824.0 27 33
- 0.50125 0 1 cbr 210 ------- 1 0.1 1073741824.0 27 33
+ 0.50125 0 3 cbr 210 ------- 1 0.1 1073741824.0 27 33
r 0.50459 0 1 cbr 210 ------- 1 0.1 1073741824.0 25 31
+ 0.50459 1 4 cbr 210 ------- 1 0.1 1073741824.0 25 31
+ 0.505 0 1 cbr 210 ------- 1 0.1 1073741824.0 28 34
- 0.505 0 1 cbr 210 ------- 1 0.1 1073741824.0 28 34
+ 0.505 0 3 cbr 210 ------- 1 0.1 1073741824.0 28 34
r 0.5056 0 3 cbr 210 ------- 1 0.1 1073741824.0 0 0
+ 0.5056 3 0 prune 80 ------- 30 3.0 0.0 -1 35
- 0.5056 3 0 prune 80 ------- 30 3.0 0.0 -1 35
- 0.50604 1 4 cbr 210 ------- 1 0.1 1073741824.0 17 23
- 0.5064 0 3 cbr 210 ------- 1 0.1 1073741824.0 19 25
r 0.50834 0 1 cbr 210 ------- 1 0.1 1073741824.0 26 32
+ 0.50834 1 4 cbr 210 ------- 1 0.1 1073741824.0 26 32
+ 0.50875 0 1 cbr 210 ------- 1 0.1 1073741824.0 29 36
- 0.50875 0 1 cbr 210 ------- 1 0.1 1073741824.0 29 36
+ 0.50875 0 3 cbr 210 ------- 1 0.1 1073741824.0 29 36
r 0.5112 0 3 cbr 210 ------- 1 0.1 1073741824.0 1 1
+ 0.5112 3 0 prune 80 ------- 30 3.0 0.0 -1 37
- 0.5112 3 0 prune 80 ------- 30 3.0 0.0 -1 37
- 0.51164 1 4 cbr 210 ------- 1 0.1 1073741824.0 18 24
- 0.512 0 3 cbr 210 ------- 1 0.1 1073741824.0 20 26
r 0.51209 0 1 cbr 210 ------- 1 0.1 1073741824.0 27 33
+ 0.51209 1 4 cbr 210 ------- 1 0.1 1073741824.0 27 33
+ 0.5125 0 1 cbr 210 ------- 1 0.1 1073741824.0 30 38
- 0.5125 0 1 cbr 210 ------- 1 0.1 1073741824.0 30 38
+ 0.5125 0 3 cbr 210 ------- 1 0.1 1073741824.0 30 38
r 0.51584 0 1 cbr 210 ------- 1 0.1 1073741824.0 28 34
+ 0.51584 1 4 cbr 210 ------- 1 0.1 1073741824.0 28 34
+ 0.51625 0 1 cbr 210 ------- 1 0.1 1073741824.0 31 39
- 0.51625 0 1 cbr 210 ------- 1 0.1 1073741824.0 31 39
+ 0.51625 0 3 cbr 210 ------- 1 0.1 1073741824.0 31 39
r 0.51644 1 4 cbr 210 ------- 1 0.1 1073741824.0 0 0
+ 0.51644 4 1 prune 80 ------- 30 4.0 1.0 -1 40
- 0.51644 4 1 prune 80 ------- 30 4.0 1.0 -1 40
r 0.5168 0 3 cbr 210 ------- 1 0.1 1073741824.0 2 2
+ 0.5168 3 0 prune 80 ------- 30 3.0 0.0 -1 41
- 0.5168 3 0 prune 80 ------- 30 3.0 0.0 -1 41
- 0.51724 1 4 cbr 210 ------- 1 0.1 1073741824.0 19 25
- 0.5176 0 3 cbr 210 ------- 1 0.1 1073741824.0 21 27
r 0.51959 0 1 cbr 210 ------- 1 0.1 1073741824.0 29 36
+ 0.51959 1 4 cbr 210 ------- 1 0.1 1073741824.0 29 36
+ 0.52 0 1 cbr 210 ------- 1 0.1 1073741824.0 32 42
- 0.52 0 1 cbr 210 ------- 1 0.1 1073741824.0 32 42
+ 0.52 0 3 cbr 210 ------- 1 0.1 1073741824.0 32 42
r 0.52204 1 4 cbr 210 ------- 1 0.1 1073741824.0 1 1
+ 0.52204 4 1 prune 80 ------- 30 4.0 1.0 -1 43
- 0.52204 4 1 prune 80 ------- 30 4.0 1.0 -1 43
r 0.5224 0 3 cbr 210 ------- 1 0.1 1073741824.0 3 4
+ 0.5224 3 0 prune 80 ------- 30 3.0 0.0 -1 44
- 0.5224 3 0 prune 80 ------- 30 3.0 0.0 -1 44
- 0.52284 1 4 cbr 210 ------- 1 0.1 1073741824.0 20 26
- 0.5232 0 3 cbr 210 ------- 1 0.1 1073741824.0 22 28
r 0.52334 0 1 cbr 210 ------- 1 0.1 1073741824.0 30 38
+ 0.52334 1 4 cbr 210 ------- 1 0.1 1073741824.0 30 38
+ 0.52375 0 1 cbr 210 ------- 1 0.1 1073741824.0 33 45
- 0.52375 0 1 cbr 210 ------- 1 0.1 1073741824.0 33 45
+ 0.52375 0 3 cbr 210 ------- 1 0.1 1073741824.0 33 45
r 0.52709 0 1 cbr 210 ------- 1 0.1 1073741824.0 31 39
+ 0.52709 1 4 cbr 210 ------- 1 0.1 1073741824.0 31 39
+ 0.5275 0 1 cbr 210 ------- 1 0.1 1073741824.0 34 46
- 0.5275 0 1 cbr 210 ------- 1 0.1 1073741824.0 34 46
+ 0.5275 0 3 cbr 210 ------- 1 0.1 1073741824.0 34 46
r 0.52764 1 4 cbr 210 ------- 1 0.1 1073741824.0 2 2
+ 0.52764 4 1 prune 80 ------- 30 4.0 1.0 -1 47
- 0.52764 4 1 prune 80 ------- 30 4.0 1.0 -1 47
r 0.528 0 3 cbr 210 ------- 1 0.1 1073741824.0 4 6
+ 0.528 3 0 prune 80 ------- 30 3.0 0.0 -1 48
- 0.528 3 0 prune 80 ------- 30 3.0 0.0 -1 48
- 0.52844 1 4 cbr 210 ------- 1 0.1 1073741824.0 21 27
- 0.5288 0 3 cbr 210 ------- 1 0.1 1073741824.0 23 29
r 0.53084 0 1 cbr 210 ------- 1 0.1 1073741824.0 32 42
+ 0.53084 1 4 cbr 210 ------- 1 0.1 1073741824.0 32 42
+ 0.53125 0 1 cbr 210 ------- 1 0.1 1073741824.0 35 49
- 0.53125 0 1 cbr 210 ------- 1 0.1 1073741824.0 35 49
+ 0.53125 0 3 cbr 210 ------- 1 0.1 1073741824.0 35 49
r 0.53324 1 4 cbr 210 ------- 1 0.1 1073741824.0 3 4
+ 0.53324 4 1 prune 80 ------- 30 4.0 1.0 -1 50
- 0.53324 4 1 prune 80 ------- 30 4.0 1.0 -1 50
r 0.5336 0 3 cbr 210 ------- 1 0.1 1073741824.0 5 8
+ 0.5336 3 0 prune 80 ------- 30 3.0 0.0 -1 51
- 0.5336 3 0 prune 80 ------- 30 3.0 0.0 -1 51
- 0.53404 1 4 cbr 210 ------- 1 0.1 1073741824.0 22 28
- 0.5344 0 3 cbr 210 ------- 1 0.1 1073741824.0 24 30
r 0.53459 0 1 cbr 210 ------- 1 0.1 1073741824.0 33 45
+ 0.53459 1 4 cbr 210 ------- 1 0.1 1073741824.0 33 45
+ 0.535 0 1 cbr 210 ------- 1 0.1 1073741824.0 36 52
- 0.535 0 1 cbr 210 ------- 1 0.1 1073741824.0 36 52
+ 0.535 0 3 cbr 210 ------- 1 0.1 1073741824.0 36 52
r 0.53834 0 1 cbr 210 ------- 1 0.1 1073741824.0 34 46
+ 0.53834 1 4 cbr 210 ------- 1 0.1 1073741824.0 34 46
+ 0.53875 0 1 cbr 210 ------- 1 0.1 1073741824.0 37 53
- 0.53875 0 1 cbr 210 ------- 1 0.1 1073741824.0 37 53
+ 0.53875 0 3 cbr 210 ------- 1 0.1 1073741824.0 37 53
r 0.53884 1 4 cbr 210 ------- 1 0.1 1073741824.0 4 6
+ 0.53884 4 1 prune 80 ------- 30 4.0 1.0 -1 54
- 0.53884 4 1 prune 80 ------- 30 4.0 1.0 -1 54
r 0.5392 0 3 cbr 210 ------- 1 0.1 1073741824.0 6 10
+ 0.5392 3 0 prune 80 ------- 30 3.0 0.0 -1 55
- 0.5392 3 0 prune 80 ------- 30 3.0 0.0 -1 55
- 0.53964 1 4 cbr 210 ------- 1 0.1 1073741824.0 23 29
- 0.54 0 3 cbr 210 ------- 1 0.1 1073741824.0 25 31
r 0.54209 0 1 cbr 210 ------- 1 0.1 1073741824.0 35 49
+ 0.54209 1 4 cbr 210 ------- 1 0.1 1073741824.0 35 49
+ 0.5425 0 1 cbr 210 ------- 1 0.1 1073741824.0 38 56
- 0.5425 0 1 cbr 210 ------- 1 0.1 1073741824.0 38 56
+ 0.5425 0 3 cbr 210 ------- 1 0.1 1073741824.0 38 56
r 0.54444 1 4 cbr 210 ------- 1 0.1 1073741824.0 5 8
+ 0.54444 4 1 prune 80 ------- 30 4.0 1.0 -1 57
- 0.54444 4 1 prune 80 ------- 30 4.0 1.0 -1 57
r 0.5448 0 3 cbr 210 ------- 1 0.1 1073741824.0 7 12
+ 0.5448 3 0 prune 80 ------- 30 3.0 0.0 -1 58
- 0.5448 3 0 prune 80 ------- 30 3.0 0.0 -1 58
- 0.54524 1 4 cbr 210 ------- 1 0.1 1073741824.0 24 30
- 0.5456 0 3 cbr 210 ------- 1 0.1 1073741824.0 26 32
r 0.54584 0 1 cbr 210 ------- 1 0.1 1073741824.0 36 52
+ 0.54584 1 4 cbr 210 ------- 1 0.1 1073741824.0 36 52
+ 0.54625 0 1 cbr 210 ------- 1 0.1 1073741824.0 39 59
- 0.54625 0 1 cbr 210 ------- 1 0.1 1073741824.0 39 59
+ 0.54625 0 3 cbr 210 ------- 1 0.1 1073741824.0 39 59
r 0.54959 0 1 cbr 210 ------- 1 0.1 1073741824.0 37 53
+ 0.54959 1 4 cbr 210 ------- 1 0.1 1073741824.0 37 53
+ 0.55 0 1 cbr 210 ------- 1 0.1 1073741824.0 40 60
- 0.55 0 1 cbr 210 ------- 1 0.1 1073741824.0 40 60
+ 0.55 0 3 cbr 210 ------- 1 0.1 1073741824.0 40 60
r 0.55004 1 4 cbr 210 ------- 1 0.1 1073741824.0 6 10
+ 0.55004 4 1 prune 80 ------- 30 4.0 1.0 -1 61
- 0.55004 4 1 prune 80 ------- 30 4.0 1.0 -1 61
r 0.5504 0 3 cbr 210 ------- 1 0.1 1073741824.0 8 14
+ 0.5504 3 0 prune 80 ------- 30 3.0 0.0 -1 62
- 0.5504 3 0 prune 80 ------- 30 3.0 0.0 -1 62
- 0.55084 1 4 cbr 210 ------- 1 0.1 1073741824.0 25 31
- 0.5512 0 3 cbr 210 ------- 1 0.1 1073741824.0 27 33
r 0.55334 0 1 cbr 210 ------- 1 0.1 1073741824.0 38 56
+ 0.55334 1 4 cbr 210 ------- 1 0.1 1073741824.0 38 56
+ 0.55375 0 1 cbr 210 ------- 1 0.1 1073741824.0 41 63
- 0.55375 0 1 cbr 210 ------- 1 0.1 1073741824.0 41 63
+ 0.55375 0 3 cbr 210 ------- 1 0.1 1073741824.0 41 63
r 0.55564 1 4 cbr 210 ------- 1 0.1 1073741824.0 7 12
+ 0.55564 4 1 prune 80 ------- 30 4.0 1.0 -1 64
- 0.55564 4 1 prune 80 ------- 30 4.0 1.0 -1 64
r 0.556 0 3 cbr 210 ------- 1 0.1 1073741824.0 9 15
+ 0.556 3 0 prune 80 ------- 30 3.0 0.0 -1 65
- 0.556 3 0 prune 80 ------- 30 3.0 0.0 -1 65
- 0.55644 1 4 cbr 210 ------- 1 0.1 1073741824.0 26 32
- 0.5568 0 3 cbr 210 ------- 1 0.1 1073741824.0 28 34
r 0.55709 0 1 cbr 210 ------- 1 0.1 1073741824.0 39 59
+ 0.55709 1 4 cbr 210 ------- 1 0.1 1073741824.0 39 59
+ 0.5575 0 1 cbr 210 ------- 1 0.1 1073741824.0 42 66
- 0.5575 0 1 cbr 210 ------- 1 0.1 1073741824.0 42 66
+ 0.5575 0 3 cbr 210 ------- 1 0.1 1073741824.0 42 66
r 0.56084 0 1 cbr 210 ------- 1 0.1 1073741824.0 40 60
+ 0.56084 1 4 cbr 210 ------- 1 0.1 1073741824.0 40 60
r 0.56124 1 4 cbr 210 ------- 1 0.1 1073741824.0 8 14
+ 0.56124 4 1 prune 80 ------- 30 4.0 1.0 -1 67
- 0.56124 4 1 prune 80 ------- 30 4.0 1.0 -1 67
+ 0.56125 0 1 cbr 210 ------- 1 0.1 1073741824.0 43 68
- 0.56125 0 1 cbr 210 ------- 1 0.1 1073741824.0 43 68
+ 0.56125 0 3 cbr 210 ------- 1 0.1 1073741824.0 43 68
r 0.5616 0 3 cbr 210 ------- 1 0.1 1073741824.0 10 16
+ 0.5616 3 0 prune 80 ------- 30 3.0 0.0 -1 69
- 0.5616 3 0 prune 80 ------- 30 3.0 0.0 -1 69
- 0.56204 1 4 cbr 210 ------- 1 0.1 1073741824.0 27 33
- 0.5624 0 3 cbr 210 ------- 1 0.1 1073741824.0 29 36
r 0.56459 0 1 cbr 210 ------- 1 0.1 1073741824.0 41 63
+ 0.56459 1 4 cbr 210 ------- 1 0.1 1073741824.0 41 63
+ 0.565 0 1 cbr 210 ------- 1 0.1 1073741824.0 44 70
- 0.565 0 1 cbr 210 ------- 1 0.1 1073741824.0 44 70
+ 0.565 0 3 cbr 210 ------- 1 0.1 1073741824.0 44 70
r 0.56684 1 4 cbr 210 ------- 1 0.1 1073741824.0 9 15
+ 0.56684 4 1 prune 80 ------- 30 4.0 1.0 -1 71
- 0.56684 4 1 prune 80 ------- 30 4.0 1.0 -1 71
r 0.5672 0 3 cbr 210 ------- 1 0.1 1073741824.0 11 17
+ 0.5672 3 0 prune 80 ------- 30 3.0 0.0 -1 72
- 0.5672 3 0 prune 80 ------- 30 3.0 0.0 -1 72
- 0.56764 1 4 cbr 210 ------- 1 0.1 1073741824.0 28 34
- 0.568 0 3 cbr 210 ------- 1 0.1 1073741824.0 30 38
r 0.56834 0 1 cbr 210 ------- 1 0.1 1073741824.0 42 66
+ 0.56834 1 4 cbr 210 ------- 1 0.1 1073741824.0 42 66
+ 0.56875 0 1 cbr 210 ------- 1 0.1 1073741824.0 45 73
- 0.56875 0 1 cbr 210 ------- 1 0.1 1073741824.0 45 73
+ 0.56875 0 3 cbr 210 ------- 1 0.1 1073741824.0 45 73
r 0.57209 0 1 cbr 210 ------- 1 0.1 1073741824.0 43 68
+ 0.57209 1 4 cbr 210 ------- 1 0.1 1073741824.0 43 68
r 0.57244 1 4 cbr 210 ------- 1 0.1 1073741824.0 10 16
+ 0.57244 4 1 prune 80 ------- 30 4.0 1.0 -1 74
- 0.57244 4 1 prune 80 ------- 30 4.0 1.0 -1 74
+ 0.5725 0 1 cbr 210 ------- 1 0.1 1073741824.0 46 75
- 0.5725 0 1 cbr 210 ------- 1 0.1 1073741824.0 46 75
+ 0.5725 0 3 cbr 210 ------- 1 0.1 1073741824.0 46 75
r 0.5728 0 3 cbr 210 ------- 1 0.1 1073741824.0 12 18
+ 0.5728 3 0 prune 80 ------- 30 3.0 0.0 -1 76
- 0.5728 3 0 prune 80 ------- 30 3.0 0.0 -1 76
- 0.57324 1 4 cbr 210 ------- 1 0.1 1073741824.0 29 36
- 0.5736 0 3 cbr 210 ------- 1 0.1 1073741824.0 31 39
r 0.57584 0 1 cbr 210 ------- 1 0.1 1073741824.0 44 70
+ 0.57584 1 4 cbr 210 ------- 1 0.1 1073741824.0 44 70
+ 0.57625 0 1 cbr 210 ------- 1 0.1 1073741824.0 47 77
- 0.57625 0 1 cbr 210 ------- 1 0.1 1073741824.0 47 77
+ 0.57625 0 3 cbr 210 ------- 1 0.1 1073741824.0 47 77
r 0.57804 1 4 cbr 210 ------- 1 0.1 1073741824.0 11 17
+ 0.57804 4 1 prune 80 ------- 30 4.0 1.0 -1 78
- 0.57804 4 1 prune 80 ------- 30 4.0 1.0 -1 78
r 0.5784 0 3 cbr 210 ------- 1 0.1 1073741824.0 13 19
+ 0.5784 3 0 prune 80 ------- 30 3.0 0.0 -1 79
- 0.5784 3 0 prune 80 ------- 30 3.0 0.0 -1 79
- 0.57884 1 4 cbr 210 ------- 1 0.1 1073741824.0 30 38
- 0.5792 0 3 cbr 210 ------- 1 0.1 1073741824.0 32 42
r 0.57959 0 1 cbr 210 ------- 1 0.1 1073741824.0 45 73
+ 0.57959 1 4 cbr 210 ------- 1 0.1 1073741824.0 45 73
+ 0.58 0 1 cbr 210 ------- 1 0.1 1073741824.0 48 80
- 0.58 0 1 cbr 210 ------- 1 0.1 1073741824.0 48 80
+ 0.58 0 3 cbr 210 ------- 1 0.1 1073741824.0 48 80
r 0.58334 0 1 cbr 210 ------- 1 0.1 1073741824.0 46 75
+ 0.58334 1 4 cbr 210 ------- 1 0.1 1073741824.0 46 75
r 0.58364 1 4 cbr 210 ------- 1 0.1 1073741824.0 12 18
+ 0.58364 4 1 prune 80 ------- 30 4.0 1.0 -1 81
- 0.58364 4 1 prune 80 ------- 30 4.0 1.0 -1 81
+ 0.58375 0 1 cbr 210 ------- 1 0.1 1073741824.0 49 82
- 0.58375 0 1 cbr 210 ------- 1 0.1 1073741824.0 49 82
+ 0.58375 0 3 cbr 210 ------- 1 0.1 1073741824.0 49 82
r 0.584 0 3 cbr 210 ------- 1 0.1 1073741824.0 14 20
+ 0.584 3 0 prune 80 ------- 30 3.0 0.0 -1 83
- 0.584 3 0 prune 80 ------- 30 3.0 0.0 -1 83
- 0.58444 1 4 cbr 210 ------- 1 0.1 1073741824.0 31 39
- 0.5848 0 3 cbr 210 ------- 1 0.1 1073741824.0 33 45
r 0.58709 0 1 cbr 210 ------- 1 0.1 1073741824.0 47 77
+ 0.58709 1 4 cbr 210 ------- 1 0.1 1073741824.0 47 77
+ 0.5875 0 1 cbr 210 ------- 1 0.1 1073741824.0 50 84
- 0.5875 0 1 cbr 210 ------- 1 0.1 1073741824.0 50 84
+ 0.5875 0 3 cbr 210 ------- 1 0.1 1073741824.0 50 84
r 0.58924 1 4 cbr 210 ------- 1 0.1 1073741824.0 13 19
+ 0.58924 4 1 prune 80 ------- 30 4.0 1.0 -1 85
- 0.58924 4 1 prune 80 ------- 30 4.0 1.0 -1 85
r 0.5896 0 3 cbr 210 ------- 1 0.1 1073741824.0 15 21
+ 0.5896 3 0 prune 80 ------- 30 3.0 0.0 -1 86
- 0.5896 3 0 prune 80 ------- 30 3.0 0.0 -1 86
- 0.59004 1 4 cbr 210 ------- 1 0.1 1073741824.0 32 42
- 0.5904 0 3 cbr 210 ------- 1 0.1 1073741824.0 34 46
r 0.59084 0 1 cbr 210 ------- 1 0.1 1073741824.0 48 80
+ 0.59084 1 4 cbr 210 ------- 1 0.1 1073741824.0 48 80
+ 0.59125 0 1 cbr 210 ------- 1 0.1 1073741824.0 51 87
- 0.59125 0 1 cbr 210 ------- 1 0.1 1073741824.0 51 87
+ 0.59125 0 3 cbr 210 ------- 1 0.1 1073741824.0 51 87
r 0.59459 0 1 cbr 210 ------- 1 0.1 1073741824.0 49 82
+ 0.59459 1 4 cbr 210 ------- 1 0.1 1073741824.0 49 82
r 0.59484 1 4 cbr 210 ------- 1 0.1 1073741824.0 14 20
+ 0.59484 4 1 prune 80 ------- 30 4.0 1.0 -1 88
- 0.59484 4 1 prune 80 ------- 30 4.0 1.0 -1 88
+ 0.595 0 1 cbr 210 ------- 1 0.1 1073741824.0 52 89
- 0.595 0 1 cbr 210 ------- 1 0.1 1073741824.0 52 89
+ 0.595 0 3 cbr 210 ------- 1 0.1 1073741824.0 52 89
r 0.5952 0 3 cbr 210 ------- 1 0.1 1073741824.0 16 22
+ 0.5952 3 0 prune 80 ------- 30 3.0 0.0 -1 90
- 0.5952 3 0 prune 80 ------- 30 3.0 0.0 -1 90
- 0.59564 1 4 cbr 210 ------- 1 0.1 1073741824.0 33 45
- 0.596 0 3 cbr 210 ------- 1 0.1 1073741824.0 35 49
r 0.59834 0 1 cbr 210 ------- 1 0.1 1073741824.0 50 84
+ 0.59834 1 4 cbr 210 ------- 1 0.1 1073741824.0 50 84
+ 0.59875 0 1 cbr 210 ------- 1 0.1 1073741824.0 53 91
- 0.59875 0 1 cbr 210 ------- 1 0.1 1073741824.0 53 91
+ 0.59875 0 3 cbr 210 ------- 1 0.1 1073741824.0 53 91
r 0.60044 1 4 cbr 210 ------- 1 0.1 1073741824.0 15 21
+ 0.60044 4 1 prune 80 ------- 30 4.0 1.0 -1 92
- 0.60044 4 1 prune 80 ------- 30 4.0 1.0 -1 92
r 0.6008 0 3 cbr 210 ------- 1 0.1 1073741824.0 17 23
+ 0.6008 3 0 prune 80 ------- 30 3.0 0.0 -1 93
- 0.6008 3 0 prune 80 ------- 30 3.0 0.0 -1 93
- 0.60124 1 4 cbr 210 ------- 1 0.1 1073741824.0 34 46
- 0.6016 0 3 cbr 210 ------- 1 0.1 1073741824.0 36 52
r 0.60209 0 1 cbr 210 ------- 1 0.1 1073741824.0 51 87
+ 0.60209 1 4 cbr 210 ------- 1 0.1 1073741824.0 51 87
+ 0.6025 0 1 cbr 210 ------- 1 0.1 1073741824.0 54 94
- 0.6025 0 1 cbr 210 ------- 1 0.1 1073741824.0 54 94
+ 0.6025 0 3 cbr 210 ------- 1 0.1 1073741824.0 54 94
r 0.60584 0 1 cbr 210 ------- 1 0.1 1073741824.0 52 89
+ 0.60584 1 4 cbr 210 ------- 1 0.1 1073741824.0 52 89
r 0.60604 1 4 cbr 210 ------- 1 0.1 1073741824.0 16 22
+ 0.60604 4 1 prune 80 ------- 30 4.0 1.0 -1 95
- 0.60604 4 1 prune 80 ------- 30 4.0 1.0 -1 95
+ 0.60625 0 1 cbr 210 ------- 1 0.1 1073741824.0 55 96
- 0.60625 0 1 cbr 210 ------- 1 0.1 1073741824.0 55 96
+ 0.60625 0 3 cbr 210 ------- 1 0.1 1073741824.0 55 96
r 0.6064 0 3 cbr 210 ------- 1 0.1 1073741824.0 18 24
+ 0.6064 3 0 prune 80 ------- 30 3.0 0.0 -1 97
- 0.6064 3 0 prune 80 ------- 30 3.0 0.0 -1 97
- 0.60684 1 4 cbr 210 ------- 1 0.1 1073741824.0 35 49
- 0.6072 0 3 cbr 210 ------- 1 0.1 1073741824.0 37 53
r 0.607733 3 0 prune 80 ------- 30 3.0 0.0 -1 35
r 0.60959 0 1 cbr 210 ------- 1 0.1 1073741824.0 53 91
+ 0.60959 1 4 cbr 210 ------- 1 0.1 1073741824.0 53 91
+ 0.61 0 1 cbr 210 ------- 1 0.1 1073741824.0 56 98
- 0.61 0 1 cbr 210 ------- 1 0.1 1073741824.0 56 98
r 0.61164 1 4 cbr 210 ------- 1 0.1 1073741824.0 17 23
+ 0.61164 4 1 prune 80 ------- 30 4.0 1.0 -1 99
- 0.61164 4 1 prune 80 ------- 30 4.0 1.0 -1 99
r 0.612 0 3 cbr 210 ------- 1 0.1 1073741824.0 19 25
+ 0.612 3 0 prune 80 ------- 30 3.0 0.0 -1 100
- 0.612 3 0 prune 80 ------- 30 3.0 0.0 -1 100
- 0.61244 1 4 cbr 210 ------- 1 0.1 1073741824.0 36 52
- 0.6128 0 3 cbr 210 ------- 1 0.1 1073741824.0 38 56
r 0.613333 3 0 prune 80 ------- 30 3.0 0.0 -1 37
r 0.61334 0 1 cbr 210 ------- 1 0.1 1073741824.0 54 94
+ 0.61334 1 4 cbr 210 ------- 1 0.1 1073741824.0 54 94
+ 0.61375 0 1 cbr 210 ------- 1 0.1 1073741824.0 57 101
- 0.61375 0 1 cbr 210 ------- 1 0.1 1073741824.0 57 101
r 0.61709 0 1 cbr 210 ------- 1 0.1 1073741824.0 55 96
+ 0.61709 1 4 cbr 210 ------- 1 0.1 1073741824.0 55 96
r 0.61724 1 4 cbr 210 ------- 1 0.1 1073741824.0 18 24
+ 0.61724 4 1 prune 80 ------- 30 4.0 1.0 -1 102
- 0.61724 4 1 prune 80 ------- 30 4.0 1.0 -1 102
+ 0.6175 0 1 cbr 210 ------- 1 0.1 1073741824.0 58 103
- 0.6175 0 1 cbr 210 ------- 1 0.1 1073741824.0 58 103
r 0.6176 0 3 cbr 210 ------- 1 0.1 1073741824.0 20 26
+ 0.6176 3 0 prune 80 ------- 30 3.0 0.0 -1 104
- 0.6176 3 0 prune 80 ------- 30 3.0 0.0 -1 104
- 0.61804 1 4 cbr 210 ------- 1 0.1 1073741824.0 37 53
- 0.6184 0 3 cbr 210 ------- 1 0.1 1073741824.0 39 59
r 0.618573 4 1 prune 80 ------- 30 4.0 1.0 -1 40
+ 0.618573 1 0 prune 80 ------- 30 1.0 0.0 -1 105
- 0.618573 1 0 prune 80 ------- 30 1.0 0.0 -1 105
r 0.618933 3 0 prune 80 ------- 30 3.0 0.0 -1 41
r 0.62084 0 1 cbr 210 ------- 1 0.1 1073741824.0 56 98
+ 0.62084 1 0 prune 80 ------- 30 1.0 0.0 -1 106
- 0.62084 1 0 prune 80 ------- 30 1.0 0.0 -1 106
+ 0.62125 0 1 cbr 210 ------- 1 0.1 1073741824.0 59 107
- 0.62125 0 1 cbr 210 ------- 1 0.1 1073741824.0 59 107
r 0.62284 1 4 cbr 210 ------- 1 0.1 1073741824.0 19 25
+ 0.62284 4 1 prune 80 ------- 30 4.0 1.0 -1 108
- 0.62284 4 1 prune 80 ------- 30 4.0 1.0 -1 108
r 0.6232 0 3 cbr 210 ------- 1 0.1 1073741824.0 21 27
+ 0.6232 3 0 prune 80 ------- 30 3.0 0.0 -1 109
- 0.6232 3 0 prune 80 ------- 30 3.0 0.0 -1 109
- 0.62364 1 4 cbr 210 ------- 1 0.1 1073741824.0 38 56
- 0.624 0 3 cbr 210 ------- 1 0.1 1073741824.0 40 60
r 0.624173 4 1 prune 80 ------- 30 4.0 1.0 -1 43
r 0.624533 3 0 prune 80 ------- 30 3.0 0.0 -1 44
r 0.62459 0 1 cbr 210 ------- 1 0.1 1073741824.0 57 101
+ 0.62459 1 0 prune 80 ------- 30 1.0 0.0 -1 110
- 0.62459 1 0 prune 80 ------- 30 1.0 0.0 -1 110
+ 0.625 0 1 cbr 210 ------- 1 0.1 1073741824.0 60 111
- 0.625 0 1 cbr 210 ------- 1 0.1 1073741824.0 60 111
r 0.62834 0 1 cbr 210 ------- 1 0.1 1073741824.0 58 103
+ 0.62834 1 0 prune 80 ------- 30 1.0 0.0 -1 112
- 0.62834 1 0 prune 80 ------- 30 1.0 0.0 -1 112
r 0.62844 1 4 cbr 210 ------- 1 0.1 1073741824.0 20 26
+ 0.62844 4 1 prune 80 ------- 30 4.0 1.0 -1 113
- 0.62844 4 1 prune 80 ------- 30 4.0 1.0 -1 113
+ 0.62875 0 1 cbr 210 ------- 1 0.1 1073741824.0 61 114
- 0.62875 0 1 cbr 210 ------- 1 0.1 1073741824.0 61 114
r 0.6288 0 3 cbr 210 ------- 1 0.1 1073741824.0 22 28
+ 0.6288 3 0 prune 80 ------- 30 3.0 0.0 -1 115
- 0.6288 3 0 prune 80 ------- 30 3.0 0.0 -1 115
r 0.628893 1 0 prune 80 ------- 30 1.0 0.0 -1 105
- 0.62924 1 4 cbr 210 ------- 1 0.1 1073741824.0 39 59
- 0.6296 0 3 cbr 210 ------- 1 0.1 1073741824.0 41 63
r 0.629773 4 1 prune 80 ------- 30 4.0 1.0 -1 47
r 0.630133 3 0 prune 80 ------- 30 3.0 0.0 -1 48
r 0.63116 1 0 prune 80 ------- 30 1.0 0.0 -1 106
r 0.63209 0 1 cbr 210 ------- 1 0.1 1073741824.0 59 107
+ 0.63209 1 0 prune 80 ------- 30 1.0 0.0 -1 116
- 0.63209 1 0 prune 80 ------- 30 1.0 0.0 -1 116
r 0.63404 1 4 cbr 210 ------- 1 0.1 1073741824.0 21 27