v 0 eval {set sim_annotation {0 1 join-group 1073741824}}
v 0 eval {set sim_annotation {0 2 join-group 1073741824}}
v 0 eval {set sim_annotation {0 3 join-group 1073741824}}
v 0 eval {set sim_annotation {0 4 join-group 1073741824}}
+ 0.1 0 4 cbr 210 ------- 1 0.1 1073741824.0 0 0
- 0.1 0 4 cbr 210 ------- 1 0.1 1073741824.0 0 0
+ 0.1 0 1 cbr 210 ------- 1 0.1 1073741824.0 0 0
- 0.1 0 1 cbr 210 ------- 1 0.1 1073741824.0 0 0
+ 0.1 0 2 cbr 210 ------- 1 0.1 1073741824.0 0 0
- 0.1 0 2 cbr 210 ------- 1 0.1 1073741824.0 0 0
+ 0.1 0 3 cbr 210 ------- 1 0.1 1073741824.0 0 0
- 0.1 0 3 cbr 210 ------- 1 0.1 1073741824.0 0 0
+ 0.10375 0 4 cbr 210 ------- 1 0.1 1073741824.0 1 1
+ 0.10375 0 1 cbr 210 ------- 1 0.1 1073741824.0 1 1
- 0.10375 0 1 cbr 210 ------- 1 0.1 1073741824.0 1 1
+ 0.10375 0 2 cbr 210 ------- 1 0.1 1073741824.0 1 1
- 0.10375 0 2 cbr 210 ------- 1 0.1 1073741824.0 1 1
+ 0.10375 0 3 cbr 210 ------- 1 0.1 1073741824.0 1 1
- 0.1056 0 4 cbr 210 ------- 1 0.1 1073741824.0 1 1
- 0.1056 0 3 cbr 210 ------- 1 0.1 1073741824.0 1 1
+ 0.1075 0 4 cbr 210 ------- 1 0.1 1073741824.0 2 2
+ 0.1075 0 1 cbr 210 ------- 1 0.1 1073741824.0 2 2
- 0.1075 0 1 cbr 210 ------- 1 0.1 1073741824.0 2 2
+ 0.1075 0 2 cbr 210 ------- 1 0.1 1073741824.0 2 2
- 0.1075 0 2 cbr 210 ------- 1 0.1 1073741824.0 2 2
+ 0.1075 0 3 cbr 210 ------- 1 0.1 1073741824.0 2 2
r 0.11084 0 1 cbr 210 ------- 1 0.1 1073741824.0 0 0
r 0.11084 0 2 cbr 210 ------- 1 0.1 1073741824.0 0 0
- 0.1112 0 4 cbr 210 ------- 1 0.1 1073741824.0 2 2
- 0.1112 0 3 cbr 210 ------- 1 0.1 1073741824.0 2 2
+ 0.11125 0 4 cbr 210 ------- 1 0.1 1073741824.0 3 3
+ 0.11125 0 1 cbr 210 ------- 1 0.1 1073741824.0 3 3
- 0.11125 0 1 cbr 210 ------- 1 0.1 1073741824.0 3 3
+ 0.11125 0 2 cbr 210 ------- 1 0.1 1073741824.0 3 3
- 0.11125 0 2 cbr 210 ------- 1 0.1 1073741824.0 3 3
+ 0.11125 0 3 cbr 210 ------- 1 0.1 1073741824.0 3 3
r 0.11459 0 1 cbr 210 ------- 1 0.1 1073741824.0 1 1
r 0.11459 0 2 cbr 210 ------- 1 0.1 1073741824.0 1 1
+ 0.115 0 4 cbr 210 ------- 1 0.1 1073741824.0 4 4
+ 0.115 0 1 cbr 210 ------- 1 0.1 1073741824.0 4 4
- 0.115 0 1 cbr 210 ------- 1 0.1 1073741824.0 4 4
+ 0.115 0 2 cbr 210 ------- 1 0.1 1073741824.0 4 4
- 0.115 0 2 cbr 210 ------- 1 0.1 1073741824.0 4 4
+ 0.115 0 3 cbr 210 ------- 1 0.1 1073741824.0 4 4
- 0.1168 0 4 cbr 210 ------- 1 0.1 1073741824.0 3 3
- 0.1168 0 3 cbr 210 ------- 1 0.1 1073741824.0 3 3
r 0.11834 0 1 cbr 210 ------- 1 0.1 1073741824.0 2 2
r 0.11834 0 2 cbr 210 ------- 1 0.1 1073741824.0 2 2
+ 0.11875 0 4 cbr 210 ------- 1 0.1 1073741824.0 5 5
+ 0.11875 0 1 cbr 210 ------- 1 0.1 1073741824.0 5 5
- 0.11875 0 1 cbr 210 ------- 1 0.1 1073741824.0 5 5
+ 0.11875 0 2 cbr 210 ------- 1 0.1 1073741824.0 5 5
- 0.11875 0 2 cbr 210 ------- 1 0.1 1073741824.0 5 5
+ 0.11875 0 3 cbr 210 ------- 1 0.1 1073741824.0 5 5
r 0.12209 0 1 cbr 210 ------- 1 0.1 1073741824.0 3 3
r 0.12209 0 2 cbr 210 ------- 1 0.1 1073741824.0 3 3
- 0.1224 0 4 cbr 210 ------- 1 0.1 1073741824.0 4 4
- 0.1224 0 3 cbr 210 ------- 1 0.1 1073741824.0 4 4
+ 0.1225 0 4 cbr 210 ------- 1 0.1 1073741824.0 6 6
+ 0.1225 0 1 cbr 210 ------- 1 0.1 1073741824.0 6 6
- 0.1225 0 1 cbr 210 ------- 1 0.1 1073741824.0 6 6
+ 0.1225 0 2 cbr 210 ------- 1 0.1 1073741824.0 6 6
- 0.1225 0 2 cbr 210 ------- 1 0.1 1073741824.0 6 6
+ 0.1225 0 3 cbr 210 ------- 1 0.1 1073741824.0 6 6
r 0.12584 0 1 cbr 210 ------- 1 0.1 1073741824.0 4 4
r 0.12584 0 2 cbr 210 ------- 1 0.1 1073741824.0 4 4
+ 0.12625 0 4 cbr 210 ------- 1 0.1 1073741824.0 7 7
+ 0.12625 0 1 cbr 210 ------- 1 0.1 1073741824.0 7 7
- 0.12625 0 1 cbr 210 ------- 1 0.1 1073741824.0 7 7
+ 0.12625 0 2 cbr 210 ------- 1 0.1 1073741824.0 7 7
- 0.12625 0 2 cbr 210 ------- 1 0.1 1073741824.0 7 7
+ 0.12625 0 3 cbr 210 ------- 1 0.1 1073741824.0 7 7
- 0.128 0 4 cbr 210 ------- 1 0.1 1073741824.0 5 5
- 0.128 0 3 cbr 210 ------- 1 0.1 1073741824.0 5 5
r 0.12959 0 1 cbr 210 ------- 1 0.1 1073741824.0 5 5
r 0.12959 0 2 cbr 210 ------- 1 0.1 1073741824.0 5 5
+ 0.13 0 4 cbr 210 ------- 1 0.1 1073741824.0 8 8
+ 0.13 0 1 cbr 210 ------- 1 0.1 1073741824.0 8 8
- 0.13 0 1 cbr 210 ------- 1 0.1 1073741824.0 8 8
+ 0.13 0 2 cbr 210 ------- 1 0.1 1073741824.0 8 8
- 0.13 0 2 cbr 210 ------- 1 0.1 1073741824.0 8 8
+ 0.13 0 3 cbr 210 ------- 1 0.1 1073741824.0 8 8
r 0.13334 0 1 cbr 210 ------- 1 0.1 1073741824.0 6 6
r 0.13334 0 2 cbr 210 ------- 1 0.1 1073741824.0 6 6
- 0.1336 0 4 cbr 210 ------- 1 0.1 1073741824.0 6 6
- 0.1336 0 3 cbr 210 ------- 1 0.1 1073741824.0 6 6
+ 0.13375 0 4 cbr 210 ------- 1 0.1 1073741824.0 9 9
+ 0.13375 0 1 cbr 210 ------- 1 0.1 1073741824.0 9 9
- 0.13375 0 1 cbr 210 ------- 1 0.1 1073741824.0 9 9
+ 0.13375 0 2 cbr 210 ------- 1 0.1 1073741824.0 9 9
- 0.13375 0 2 cbr 210 ------- 1 0.1 1073741824.0 9 9
+ 0.13375 0 3 cbr 210 ------- 1 0.1 1073741824.0 9 9
r 0.13709 0 1 cbr 210 ------- 1 0.1 1073741824.0 7 7
r 0.13709 0 2 cbr 210 ------- 1 0.1 1073741824.0 7 7
+ 0.1375 0 4 cbr 210 ------- 1 0.1 1073741824.0 10 10
+ 0.1375 0 1 cbr 210 ------- 1 0.1 1073741824.0 10 10
- 0.1375 0 1 cbr 210 ------- 1 0.1 1073741824.0 10 10
+ 0.1375 0 2 cbr 210 ------- 1 0.1 1073741824.0 10 10
- 0.1375 0 2 cbr 210 ------- 1 0.1 1073741824.0 10 10
+ 0.1375 0 3 cbr 210 ------- 1 0.1 1073741824.0 10 10
- 0.1392 0 4 cbr 210 ------- 1 0.1 1073741824.0 7 7
- 0.1392 0 3 cbr 210 ------- 1 0.1 1073741824.0 7 7
r 0.14084 0 1 cbr 210 ------- 1 0.1 1073741824.0 8 8
r 0.14084 0 2 cbr 210 ------- 1 0.1 1073741824.0 8 8
+ 0.14125 0 4 cbr 210 ------- 1 0.1 1073741824.0 11 11
+ 0.14125 0 1 cbr 210 ------- 1 0.1 1073741824.0 11 11
- 0.14125 0 1 cbr 210 ------- 1 0.1 1073741824.0 11 11
+ 0.14125 0 2 cbr 210 ------- 1 0.1 1073741824.0 11 11
- 0.14125 0 2 cbr 210 ------- 1 0.1 1073741824.0 11 11
+ 0.14125 0 3 cbr 210 ------- 1 0.1 1073741824.0 11 11
r 0.14459 0 1 cbr 210 ------- 1 0.1 1073741824.0 9 9
r 0.14459 0 2 cbr 210 ------- 1 0.1 1073741824.0 9 9
- 0.1448 0 4 cbr 210 ------- 1 0.1 1073741824.0 8 8
- 0.1448 0 3 cbr 210 ------- 1 0.1 1073741824.0 8 8
+ 0.145 0 4 cbr 210 ------- 1 0.1 1073741824.0 12 12
+ 0.145 0 1 cbr 210 ------- 1 0.1 1073741824.0 12 12
- 0.145 0 1 cbr 210 ------- 1 0.1 1073741824.0 12 12
+ 0.145 0 2 cbr 210 ------- 1 0.1 1073741824.0 12 12
- 0.145 0 2 cbr 210 ------- 1 0.1 1073741824.0 12 12
+ 0.145 0 3 cbr 210 ------- 1 0.1 1073741824.0 12 12
r 0.14834 0 1 cbr 210 ------- 1 0.1 1073741824.0 10 10
r 0.14834 0 2 cbr 210 ------- 1 0.1 1073741824.0 10 10
+ 0.14875 0 4 cbr 210 ------- 1 0.1 1073741824.0 13 13
+ 0.14875 0 1 cbr 210 ------- 1 0.1 1073741824.0 13 13
- 0.14875 0 1 cbr 210 ------- 1 0.1 1073741824.0 13 13
+ 0.14875 0 2 cbr 210 ------- 1 0.1 1073741824.0 13 13
- 0.14875 0 2 cbr 210 ------- 1 0.1 1073741824.0 13 13
+ 0.14875 0 3 cbr 210 ------- 1 0.1 1073741824.0 13 13
- 0.1504 0 4 cbr 210 ------- 1 0.1 1073741824.0 9 9
- 0.1504 0 3 cbr 210 ------- 1 0.1 1073741824.0 9 9
r 0.15209 0 1 cbr 210 ------- 1 0.1 1073741824.0 11 11
r 0.15209 0 2 cbr 210 ------- 1 0.1 1073741824.0 11 11
+ 0.1525 0 4 cbr 210 ------- 1 0.1 1073741824.0 14 14
+ 0.1525 0 1 cbr 210 ------- 1 0.1 1073741824.0 14 14
- 0.1525 0 1 cbr 210 ------- 1 0.1 1073741824.0 14 14
+ 0.1525 0 2 cbr 210 ------- 1 0.1 1073741824.0 14 14
- 0.1525 0 2 cbr 210 ------- 1 0.1 1073741824.0 14 14
+ 0.1525 0 3 cbr 210 ------- 1 0.1 1073741824.0 14 14
r 0.15584 0 1 cbr 210 ------- 1 0.1 1073741824.0 12 12
r 0.15584 0 2 cbr 210 ------- 1 0.1 1073741824.0 12 12
- 0.156 0 4 cbr 210 ------- 1 0.1 1073741824.0 10 10
- 0.156 0 3 cbr 210 ------- 1 0.1 1073741824.0 10 10
+ 0.15625 0 4 cbr 210 ------- 1 0.1 1073741824.0 15 15
+ 0.15625 0 1 cbr 210 ------- 1 0.1 1073741824.0 15 15
- 0.15625 0 1 cbr 210 ------- 1 0.1 1073741824.0 15 15
+ 0.15625 0 2 cbr 210 ------- 1 0.1 1073741824.0 15 15
- 0.15625 0 2 cbr 210 ------- 1 0.1 1073741824.0 15 15
+ 0.15625 0 3 cbr 210 ------- 1 0.1 1073741824.0 15 15
r 0.15959 0 1 cbr 210 ------- 1 0.1 1073741824.0 13 13
r 0.15959 0 2 cbr 210 ------- 1 0.1 1073741824.0 13 13
+ 0.16 0 4 cbr 210 ------- 1 0.1 1073741824.0 16 16
+ 0.16 0 1 cbr 210 ------- 1 0.1 1073741824.0 16 16
- 0.16 0 1 cbr 210 ------- 1 0.1 1073741824.0 16 16
+ 0.16 0 2 cbr 210 ------- 1 0.1 1073741824.0 16 16
- 0.16 0 2 cbr 210 ------- 1 0.1 1073741824.0 16 16
+ 0.16 0 3 cbr 210 ------- 1 0.1 1073741824.0 16 16
- 0.1616 0 4 cbr 210 ------- 1 0.1 1073741824.0 11 11
- 0.1616 0 3 cbr 210 ------- 1 0.1 1073741824.0 11 11
r 0.16334 0 1 cbr 210 ------- 1 0.1 1073741824.0 14 14
r 0.16334 0 2 cbr 210 ------- 1 0.1 1073741824.0 14 14
+ 0.16375 0 4 cbr 210 ------- 1 0.1 1073741824.0 17 17
+ 0.16375 0 1 cbr 210 ------- 1 0.1 1073741824.0 17 17
- 0.16375 0 1 cbr 210 ------- 1 0.1 1073741824.0 17 17
+ 0.16375 0 2 cbr 210 ------- 1 0.1 1073741824.0 17 17
- 0.16375 0 2 cbr 210 ------- 1 0.1 1073741824.0 17 17
+ 0.16375 0 3 cbr 210 ------- 1 0.1 1073741824.0 17 17
r 0.16709 0 1 cbr 210 ------- 1 0.1 1073741824.0 15 15
r 0.16709 0 2 cbr 210 ------- 1 0.1 1073741824.0 15 15
- 0.1672 0 4 cbr 210 ------- 1 0.1 1073741824.0 12 12
- 0.1672 0 3 cbr 210 ------- 1 0.1 1073741824.0 12 12
+ 0.1675 0 4 cbr 210 ------- 1 0.1 1073741824.0 18 18
+ 0.1675 0 1 cbr 210 ------- 1 0.1 1073741824.0 18 18
- 0.1675 0 1 cbr 210 ------- 1 0.1 1073741824.0 18 18
+ 0.1675 0 2 cbr 210 ------- 1 0.1 1073741824.0 18 18
- 0.1675 0 2 cbr 210 ------- 1 0.1 1073741824.0 18 18
+ 0.1675 0 3 cbr 210 ------- 1 0.1 1073741824.0 18 18
r 0.17084 0 1 cbr 210 ------- 1 0.1 1073741824.0 16 16
r 0.17084 0 2 cbr 210 ------- 1 0.1 1073741824.0 16 16
+ 0.17125 0 4 cbr 210 ------- 1 0.1 1073741824.0 19 19
+ 0.17125 0 1 cbr 210 ------- 1 0.1 1073741824.0 19 19
- 0.17125 0 1 cbr 210 ------- 1 0.1 1073741824.0 19 19
+ 0.17125 0 2 cbr 210 ------- 1 0.1 1073741824.0 19 19
- 0.17125 0 2 cbr 210 ------- 1 0.1 1073741824.0 19 19
+ 0.17125 0 3 cbr 210 ------- 1 0.1 1073741824.0 19 19
- 0.1728 0 4 cbr 210 ------- 1 0.1 1073741824.0 13 13
- 0.1728 0 3 cbr 210 ------- 1 0.1 1073741824.0 13 13
r 0.17459 0 1 cbr 210 ------- 1 0.1 1073741824.0 17 17
r 0.17459 0 2 cbr 210 ------- 1 0.1 1073741824.0 17 17
+ 0.175 0 4 cbr 210 ------- 1 0.1 1073741824.0 20 20
+ 0.175 0 1 cbr 210 ------- 1 0.1 1073741824.0 20 20
- 0.175 0 1 cbr 210 ------- 1 0.1 1073741824.0 20 20
+ 0.175 0 2 cbr 210 ------- 1 0.1 1073741824.0 20 20
- 0.175 0 2 cbr 210 ------- 1 0.1 1073741824.0 20 20
+ 0.175 0 3 cbr 210 ------- 1 0.1 1073741824.0 20 20
r 0.17834 0 1 cbr 210 ------- 1 0.1 1073741824.0 18 18
r 0.17834 0 2 cbr 210 ------- 1 0.1 1073741824.0 18 18
- 0.1784 0 4 cbr 210 ------- 1 0.1 1073741824.0 14 14
- 0.1784 0 3 cbr 210 ------- 1 0.1 1073741824.0 14 14
+ 0.17875 0 4 cbr 210 ------- 1 0.1 1073741824.0 21 21
+ 0.17875 0 1 cbr 210 ------- 1 0.1 1073741824.0 21 21
- 0.17875 0 1 cbr 210 ------- 1 0.1 1073741824.0 21 21
+ 0.17875 0 2 cbr 210 ------- 1 0.1 1073741824.0 21 21
- 0.17875 0 2 cbr 210 ------- 1 0.1 1073741824.0 21 21
+ 0.17875 0 3 cbr 210 ------- 1 0.1 1073741824.0 21 21
r 0.18209 0 1 cbr 210 ------- 1 0.1 1073741824.0 19 19
r 0.18209 0 2 cbr 210 ------- 1 0.1 1073741824.0 19 19
+ 0.1825 0 4 cbr 210 ------- 1 0.1 1073741824.0 22 22
+ 0.1825 0 1 cbr 210 ------- 1 0.1 1073741824.0 22 22
- 0.1825 0 1 cbr 210 ------- 1 0.1 1073741824.0 22 22
+ 0.1825 0 2 cbr 210 ------- 1 0.1 1073741824.0 22 22
- 0.1825 0 2 cbr 210 ------- 1 0.1 1073741824.0 22 22
+ 0.1825 0 3 cbr 210 ------- 1 0.1 1073741824.0 22 22
- 0.184 0 4 cbr 210 ------- 1 0.1 1073741824.0 15 15
- 0.184 0 3 cbr 210 ------- 1 0.1 1073741824.0 15 15
r 0.18584 0 1 cbr 210 ------- 1 0.1 1073741824.0 20 20
r 0.18584 0 2 cbr 210 ------- 1 0.1 1073741824.0 20 20
+ 0.18625 0 4 cbr 210 ------- 1 0.1 1073741824.0 23 23
+ 0.18625 0 1 cbr 210 ------- 1 0.1 1073741824.0 23 23
- 0.18625 0 1 cbr 210 ------- 1 0.1 1073741824.0 23 23
+ 0.18625 0 2 cbr 210 ------- 1 0.1 1073741824.0 23 23
- 0.18625 0 2 cbr 210 ------- 1 0.1 1073741824.0 23 23
+ 0.18625 0 3 cbr 210 ------- 1 0.1 1073741824.0 23 23
r 0.18959 0 1 cbr 210 ------- 1 0.1 1073741824.0 21 21
r 0.18959 0 2 cbr 210 ------- 1 0.1 1073741824.0 21 21
- 0.1896 0 4 cbr 210 ------- 1 0.1 1073741824.0 16 16
- 0.1896 0 3 cbr 210 ------- 1 0.1 1073741824.0 16 16
+ 0.19 0 4 cbr 210 ------- 1 0.1 1073741824.0 24 24
+ 0.19 0 1 cbr 210 ------- 1 0.1 1073741824.0 24 24
- 0.19 0 1 cbr 210 ------- 1 0.1 1073741824.0 24 24
+ 0.19 0 2 cbr 210 ------- 1 0.1 1073741824.0 24 24
- 0.19 0 2 cbr 210 ------- 1 0.1 1073741824.0 24 24
+ 0.19 0 3 cbr 210 ------- 1 0.1 1073741824.0 24 24
r 0.19334 0 1 cbr 210 ------- 1 0.1 1073741824.0 22 22
r 0.19334 0 2 cbr 210 ------- 1 0.1 1073741824.0 22 22
+ 0.19375 0 4 cbr 210 ------- 1 0.1 1073741824.0 25 25
+ 0.19375 0 1 cbr 210 ------- 1 0.1 1073741824.0 25 25
- 0.19375 0 1 cbr 210 ------- 1 0.1 1073741824.0 25 25
+ 0.19375 0 2 cbr 210 ------- 1 0.1 1073741824.0 25 25
- 0.19375 0 2 cbr 210 ------- 1 0.1 1073741824.0 25 25
+ 0.19375 0 3 cbr 210 ------- 1 0.1 1073741824.0 25 25
- 0.1952 0 4 cbr 210 ------- 1 0.1 1073741824.0 17 17
- 0.1952 0 3 cbr 210 ------- 1 0.1 1073741824.0 17 17
r 0.19709 0 1 cbr 210 ------- 1 0.1 1073741824.0 23 23
r 0.19709 0 2 cbr 210 ------- 1 0.1 1073741824.0 23 23
+ 0.1975 0 4 cbr 210 ------- 1 0.1 1073741824.0 26 26
+ 0.1975 0 1 cbr 210 ------- 1 0.1 1073741824.0 26 26
- 0.1975 0 1 cbr 210 ------- 1 0.1 1073741824.0 26 26
+ 0.1975 0 2 cbr 210 ------- 1 0.1 1073741824.0 26 26
- 0.1975 0 2 cbr 210 ------- 1 0.1 1073741824.0 26 26
+ 0.1975 0 3 cbr 210 ------- 1 0.1 1073741824.0 26 26
- 0.2008 0 4 cbr 210 ------- 1 0.1 1073741824.0 18 18
- 0.2008 0 3 cbr 210 ------- 1 0.1 1073741824.0 18 18
r 0.20084 0 1 cbr 210 ------- 1 0.1 1073741824.0 24 24
r 0.20084 0 2 cbr 210 ------- 1 0.1 1073741824.0 24 24
+ 0.20125 0 4 cbr 210 ------- 1 0.1 1073741824.0 27 27
+ 0.20125 0 1 cbr 210 ------- 1 0.1 1073741824.0 27 27
- 0.20125 0 1 cbr 210 ------- 1 0.1 1073741824.0 27 27
+ 0.20125 0 2 cbr 210 ------- 1 0.1 1073741824.0 27 27
- 0.20125 0 2 cbr 210 ------- 1 0.1 1073741824.0 27 27
+ 0.20125 0 3 cbr 210 ------- 1 0.1 1073741824.0 27 27
r 0.20459 0 1 cbr 210 ------- 1 0.1 1073741824.0 25 25
r 0.20459 0 2 cbr 210 ------- 1 0.1 1073741824.0 25 25
+ 0.205 0 4 cbr 210 ------- 1 0.1 1073741824.0 28 28
+ 0.205 0 1 cbr 210 ------- 1 0.1 1073741824.0 28 28
- 0.205 0 1 cbr 210 ------- 1 0.1 1073741824.0 28 28
+ 0.205 0 2 cbr 210 ------- 1 0.1 1073741824.0 28 28
- 0.205 0 2 cbr 210 ------- 1 0.1 1073741824.0 28 28
+ 0.205 0 3 cbr 210 ------- 1 0.1 1073741824.0 28 28
r 0.2056 0 4 cbr 210 ------- 1 0.1 1073741824.0 0 0
r 0.2056 0 3 cbr 210 ------- 1 0.1 1073741824.0 0 0
- 0.2064 0 4 cbr 210 ------- 1 0.1 1073741824.0 19 19
- 0.2064 0 3 cbr 210 ------- 1 0.1 1073741824.0 19 19
r 0.20834 0 1 cbr 210 ------- 1 0.1 1073741824.0 26 26
r 0.20834 0 2 cbr 210 ------- 1 0.1 1073741824.0 26 26
+ 0.20875 0 4 cbr 210 ------- 1 0.1 1073741824.0 29 29
+ 0.20875 0 1 cbr 210 ------- 1 0.1 1073741824.0 29 29
- 0.20875 0 1 cbr 210 ------- 1 0.1 1073741824.0 29 29
+ 0.20875 0 2 cbr 210 ------- 1 0.1 1073741824.0 29 29
- 0.20875 0 2 cbr 210 ------- 1 0.1 1073741824.0 29 29
+ 0.20875 0 3 cbr 210 ------- 1 0.1 1073741824.0 29 29
r 0.2112 0 4 cbr 210 ------- 1 0.1 1073741824.0 1 1
r 0.2112 0 3 cbr 210 ------- 1 0.1 1073741824.0 1 1
- 0.212 0 4 cbr 210 ------- 1 0.1 1073741824.0 20 20
- 0.212 0 3 cbr 210 ------- 1 0.1 1073741824.0 20 20
r 0.21209 0 1 cbr 210 ------- 1 0.1 1073741824.0 27 27
r 0.21209 0 2 cbr 210 ------- 1 0.1 1073741824.0 27 27
+ 0.2125 0 4 cbr 210 ------- 1 0.1 1073741824.0 30 30
+ 0.2125 0 1 cbr 210 ------- 1 0.1 1073741824.0 30 30
- 0.2125 0 1 cbr 210 ------- 1 0.1 1073741824.0 30 30
+ 0.2125 0 2 cbr 210 ------- 1 0.1 1073741824.0 30 30
- 0.2125 0 2 cbr 210 ------- 1 0.1 1073741824.0 30 30
+ 0.2125 0 3 cbr 210 ------- 1 0.1 1073741824.0 30 30
r 0.21584 0 1 cbr 210 ------- 1 0.1 1073741824.0 28 28
r 0.21584 0 2 cbr 210 ------- 1 0.1 1073741824.0 28 28
+ 0.21625 0 4 cbr 210 ------- 1 0.1 1073741824.0 31 31
+ 0.21625 0 1 cbr 210 ------- 1 0.1 1073741824.0 31 31
- 0.21625 0 1 cbr 210 ------- 1 0.1 1073741824.0 31 31
+ 0.21625 0 2 cbr 210 ------- 1 0.1 1073741824.0 31 31
- 0.21625 0 2 cbr 210 ------- 1 0.1 1073741824.0 31 31
+ 0.21625 0 3 cbr 210 ------- 1 0.1 1073741824.0 31 31
r 0.2168 0 4 cbr 210 ------- 1 0.1 1073741824.0 2 2
r 0.2168 0 3 cbr 210 ------- 1 0.1 1073741824.0 2 2
- 0.2176 0 4 cbr 210 ------- 1 0.1 1073741824.0 21 21
- 0.2176 0 3 cbr 210 ------- 1 0.1 1073741824.0 21 21
r 0.21959 0 1 cbr 210 ------- 1 0.1 1073741824.0 29 29
r 0.21959 0 2 cbr 210 ------- 1 0.1 1073741824.0 29 29
+ 0.22 0 4 cbr 210 ------- 1 0.1 1073741824.0 32 32
+ 0.22 0 1 cbr 210 ------- 1 0.1 1073741824.0 32 32
- 0.22 0 1 cbr 210 ------- 1 0.1 1073741824.0 32 32
+ 0.22 0 2 cbr 210 ------- 1 0.1 1073741824.0 32 32
- 0.22 0 2 cbr 210 ------- 1 0.1 1073741824.0 32 32
+ 0.22 0 3 cbr 210 ------- 1 0.1 1073741824.0 32 32
r 0.2224 0 4 cbr 210 ------- 1 0.1 1073741824.0 3 3
r 0.2224 0 3 cbr 210 ------- 1 0.1 1073741824.0 3 3
- 0.2232 0 4 cbr 210 ------- 1 0.1 1073741824.0 22 22
- 0.2232 0 3 cbr 210 ------- 1 0.1 1073741824.0 22 22
r 0.22334 0 1 cbr 210 ------- 1 0.1 1073741824.0 30 30
r 0.22334 0 2 cbr 210 ------- 1 0.1 1073741824.0 30 30
+ 0.22375 0 4 cbr 210 ------- 1 0.1 1073741824.0 33 33
+ 0.22375 0 1 cbr 210 ------- 1 0.1 1073741824.0 33 33
- 0.22375 0 1 cbr 210 ------- 1 0.1 1073741824.0 33 33
+ 0.22375 0 2 cbr 210 ------- 1 0.1 1073741824.0 33 33
- 0.22375 0 2 cbr 210 ------- 1 0.1 1073741824.0 33 33
+ 0.22375 0 3 cbr 210 ------- 1 0.1 1073741824.0 33 33
r 0.22709 0 1 cbr 210 ------- 1 0.1 1073741824.0 31 31
r 0.22709 0 2 cbr 210 ------- 1 0.1 1073741824.0 31 31
+ 0.2275 0 4 cbr 210 ------- 1 0.1 1073741824.0 34 34
+ 0.2275 0 1 cbr 210 ------- 1 0.1 1073741824.0 34 34
- 0.2275 0 1 cbr 210 ------- 1 0.1 1073741824.0 34 34
+ 0.2275 0 2 cbr 210 ------- 1 0.1 1073741824.0 34 34
- 0.2275 0 2 cbr 210 ------- 1 0.1 1073741824.0 34 34
+ 0.2275 0 3 cbr 210 ------- 1 0.1 1073741824.0 34 34
r 0.228 0 4 cbr 210 ------- 1 0.1 1073741824.0 4 4
r 0.228 0 3 cbr 210 ------- 1 0.1 1073741824.0 4 4
- 0.2288 0 4 cbr 210 ------- 1 0.1 1073741824.0 23 23
- 0.2288 0 3 cbr 210 ------- 1 0.1 1073741824.0 23 23
r 0.23084 0 1 cbr 210 ------- 1 0.1 1073741824.0 32 32
r 0.23084 0 2 cbr 210 ------- 1 0.1 1073741824.0 32 32
+ 0.23125 0 4 cbr 210 ------- 1 0.1 1073741824.0 35 35
+ 0.23125 0 1 cbr 210 ------- 1 0.1 1073741824.0 35 35
- 0.23125 0 1 cbr 210 ------- 1 0.1 1073741824.0 35 35
+ 0.23125 0 2 cbr 210 ------- 1 0.1 1073741824.0 35 35
- 0.23125 0 2 cbr 210 ------- 1 0.1 1073741824.0 35 35
+ 0.23125 0 3 cbr 210 ------- 1 0.1 1073741824.0 35 35
r 0.2336 0 4 cbr 210 ------- 1 0.1 1073741824.0 5 5
r 0.2336 0 3 cbr 210 ------- 1 0.1 1073741824.0 5 5
- 0.2344 0 4 cbr 210 ------- 1 0.1 1073741824.0 24 24
- 0.2344 0 3 cbr 210 ------- 1 0.1 1073741824.0 24 24
r 0.23459 0 1 cbr 210 ------- 1 0.1 1073741824.0 33 33
r 0.23459 0 2 cbr 210 ------- 1 0.1 1073741824.0 33 33
+ 0.235 0 4 cbr 210 ------- 1 0.1 1073741824.0 36 36
+ 0.235 0 1 cbr 210 ------- 1 0.1 1073741824.0 36 36
- 0.235 0 1 cbr 210 ------- 1 0.1 1073741824.0 36 36
+ 0.235 0 2 cbr 210 ------- 1 0.1 1073741824.0 36 36
- 0.235 0 2 cbr 210 ------- 1 0.1 1073741824.0 36 36
+ 0.235 0 3 cbr 210 ------- 1 0.1 1073741824.0 36 36
r 0.23834 0 1 cbr 210 ------- 1 0.1 1073741824.0 34 34
r 0.23834 0 2 cbr 210 ------- 1 0.1 1073741824.0 34 34
+ 0.23875 0 4 cbr 210 ------- 1 0.1 1073741824.0 37 37
+ 0.23875 0 1 cbr 210 ------- 1 0.1 1073741824.0 37 37
- 0.23875 0 1 cbr 210 ------- 1 0.1 1073741824.0 37 37
+ 0.23875 0 2 cbr 210 ------- 1 0.1 1073741824.0 37 37
- 0.23875 0 2 cbr 210 ------- 1 0.1 1073741824.0 37 37
+ 0.23875 0 3 cbr 210 ------- 1 0.1 1073741824.0 37 37
r 0.2392 0 4 cbr 210 ------- 1 0.1 1073741824.0 6 6
r 0.2392 0 3 cbr 210 ------- 1 0.1 1073741824.0 6 6
- 0.24 0 4 cbr 210 ------- 1 0.1 1073741824.0 25 25
- 0.24 0 3 cbr 210 ------- 1 0.1 1073741824.0 25 25
r 0.24209 0 1 cbr 210 ------- 1 0.1 1073741824.0 35 35
r 0.24209 0 2 cbr 210 ------- 1 0.1 1073741824.0 35 35
+ 0.2425 0 4 cbr 210 ------- 1 0.1 1073741824.0 38 38
+ 0.2425 0 1 cbr 210 ------- 1 0.1 1073741824.0 38 38
- 0.2425 0 1 cbr 210 ------- 1 0.1 1073741824.0 38 38
+ 0.2425 0 2 cbr 210 ------- 1 0.1 1073741824.0 38 38
- 0.2425 0 2 cbr 210 ------- 1 0.1 1073741824.0 38 38
+ 0.2425 0 3 cbr 210 ------- 1 0.1 1073741824.0 38 38
r 0.2448 0 4 cbr 210 ------- 1 0.1 1073741824.0 7 7
r 0.2448 0 3 cbr 210 ------- 1 0.1 1073741824.0 7 7
- 0.2456 0 4 cbr 210 ------- 1 0.1 1073741824.0 26 26
- 0.2456 0 3 cbr 210 ------- 1 0.1 1073741824.0 26 26
r 0.24584 0 1 cbr 210 ------- 1 0.1 1073741824.0 36 36
r 0.24584 0 2 cbr 210 ------- 1 0.1 1073741824.0 36 36
+ 0.24625 0 4 cbr 210 ------- 1 0.1 1073741824.0 39 39
+ 0.24625 0 1 cbr 210 ------- 1 0.1 1073741824.0 39 39
- 0.24625 0 1 cbr 210 ------- 1 0.1 1073741824.0 39 39
+ 0.24625 0 2 cbr 210 ------- 1 0.1 1073741824.0 39 39
- 0.24625 0 2 cbr 210 ------- 1 0.1 1073741824.0 39 39
+ 0.24625 0 3 cbr 210 ------- 1 0.1 1073741824.0 39 39
r 0.24959 0 1 cbr 210 ------- 1 0.1 1073741824.0 37 37
r 0.24959 0 2 cbr 210 ------- 1 0.1 1073741824.0 37 37
+ 0.25 0 4 cbr 210 ------- 1 0.1 1073741824.0 40 40
+ 0.25 0 1 cbr 210 ------- 1 0.1 1073741824.0 40 40
- 0.25 0 1 cbr 210 ------- 1 0.1 1073741824.0 40 40
+ 0.25 0 2 cbr 210 ------- 1 0.1 1073741824.0 40 40
- 0.25 0 2 cbr 210 ------- 1 0.1 1073741824.0 40 40
+ 0.25 0 3 cbr 210 ------- 1 0.1 1073741824.0 40 40
r 0.2504 0 4 cbr 210 ------- 1 0.1 1073741824.0 8 8
r 0.2504 0 3 cbr 210 ------- 1 0.1 1073741824.0 8 8
- 0.2512 0 4 cbr 210 ------- 1 0.1 1073741824.0 27 27
- 0.2512 0 3 cbr 210 ------- 1 0.1 1073741824.0 27 27
r 0.25334 0 1 cbr 210 ------- 1 0.1 1073741824.0 38 38
r 0.25334 0 2 cbr 210 ------- 1 0.1 1073741824.0 38 38
+ 0.25375 0 4 cbr 210 ------- 1 0.1 1073741824.0 41 41
+ 0.25375 0 1 cbr 210 ------- 1 0.1 1073741824.0 41 41
- 0.25375 0 1 cbr 210 ------- 1 0.1 1073741824.0 41 41
+ 0.25375 0 2 cbr 210 ------- 1 0.1 1073741824.0 41 41
- 0.25375 0 2 cbr 210 ------- 1 0.1 1073741824.0 41 41
+ 0.25375 0 3 cbr 210 ------- 1 0.1 1073741824.0 41 41
r 0.256 0 4 cbr 210 ------- 1 0.1 1073741824.0 9 9
r 0.256 0 3 cbr 210 ------- 1 0.1 1073741824.0 9 9
- 0.2568 0 4 cbr 210 ------- 1 0.1 1073741824.0 28 28
- 0.2568 0 3 cbr 210 ------- 1 0.1 1073741824.0 28 28
r 0.25709 0 1 cbr 210 ------- 1 0.1 1073741824.0 39 39
r 0.25709 0 2 cbr 210 ------- 1 0.1 1073741824.0 39 39
+ 0.2575 0 4 cbr 210 ------- 1 0.1 1073741824.0 42 42
+ 0.2575 0 1 cbr 210 ------- 1 0.1 1073741824.0 42 42
- 0.2575 0 1 cbr 210 ------- 1 0.1 1073741824.0 42 42
+ 0.2575 0 2 cbr 210 ------- 1 0.1 1073741824.0 42 42
- 0.2575 0 2 cbr 210 ------- 1 0.1 1073741824.0 42 42
+ 0.2575 0 3 cbr 210 ------- 1 0.1 1073741824.0 42 42
r 0.26084 0 1 cbr 210 ------- 1 0.1 1073741824.0 40 40
r 0.26084 0 2 cbr 210 ------- 1 0.1 1073741824.0 40 40
+ 0.26125 0 4 cbr 210 ------- 1 0.1 1073741824.0 43 43
+ 0.26125 0 1 cbr 210 ------- 1 0.1 1073741824.0 43 43
- 0.26125 0 1 cbr 210 ------- 1 0.1 1073741824.0 43 43
+ 0.26125 0 2 cbr 210 ------- 1 0.1 1073741824.0 43 43
- 0.26125 0 2 cbr 210 ------- 1 0.1 1073741824.0 43 43
+ 0.26125 0 3 cbr 210 ------- 1 0.1 1073741824.0 43 43
r 0.2616 0 4 cbr 210 ------- 1 0.1 1073741824.0 10 10
r 0.2616 0 3 cbr 210 ------- 1 0.1 1073741824.0 10 10
- 0.2624 0 4 cbr 210 ------- 1 0.1 1073741824.0 29 29
- 0.2624 0 3 cbr 210 ------- 1 0.1 1073741824.0 29 29
r 0.26459 0 1 cbr 210 ------- 1 0.1 1073741824.0 41 41
r 0.26459 0 2 cbr 210 ------- 1 0.1 1073741824.0 41 41
+ 0.265 0 4 cbr 210 ------- 1 0.1 1073741824.0 44 44
+ 0.265 0 1 cbr 210 ------- 1 0.1 1073741824.0 44 44
- 0.265 0 1 cbr 210 ------- 1 0.1 1073741824.0 44 44
+ 0.265 0 2 cbr 210 ------- 1 0.1 1073741824.0 44 44
- 0.265 0 2 cbr 210 ------- 1 0.1 1073741824.0 44 44
+ 0.265 0 3 cbr 210 ------- 1 0.1 1073741824.0 44 44
r 0.2672 0 4 cbr 210 ------- 1 0.1 1073741824.0 11 11
r 0.2672 0 3 cbr 210 ------- 1 0.1 1073741824.0 11 11
- 0.268 0 4 cbr 210 ------- 1 0.1 1073741824.0 30 30
- 0.268 0 3 cbr 210 ------- 1 0.1 1073741824.0 30 30
r 0.26834 0 1 cbr 210 ------- 1 0.1 1073741824.0 42 42
r 0.26834 0 2 cbr 210 ------- 1 0.1 1073741824.0 42 42
+ 0.26875 0 4 cbr 210 ------- 1 0.1 1073741824.0 45 45
+ 0.26875 0 1 cbr 210 ------- 1 0.1 1073741824.0 45 45
- 0.26875 0 1 cbr 210 ------- 1 0.1 1073741824.0 45 45
+ 0.26875 0 2 cbr 210 ------- 1 0.1 1073741824.0 45 45
- 0.26875 0 2 cbr 210 ------- 1 0.1 1073741824.0 45 45
+ 0.26875 0 3 cbr 210 ------- 1 0.1 1073741824.0 45 45
r 0.27209 0 1 cbr 210 ------- 1 0.1 1073741824.0 43 43
r 0.27209 0 2 cbr 210 ------- 1 0.1 1073741824.0 43 43
+ 0.2725 0 4 cbr 210 ------- 1 0.1 1073741824.0 46 46
+ 0.2725 0 1 cbr 210 ------- 1 0.1 1073741824.0 46 46
- 0.2725 0 1 cbr 210 ------- 1 0.1 1073741824.0 46 46
+ 0.2725 0 2 cbr 210 ------- 1 0.1 1073741824.0 46 46
- 0.2725 0 2 cbr 210 ------- 1 0.1 1073741824.0 46 46
+ 0.2725 0 3 cbr 210 ------- 1 0.1 1073741824.0 46 46
r 0.2728 0 4 cbr 210 ------- 1 0.1 1073741824.0 12 12
r 0.2728 0 3 cbr 210 ------- 1 0.1 1073741824.0 12 12
- 0.2736 0 4 cbr 210 ------- 1 0.1 1073741824.0 31 31
- 0.2736 0 3 cbr 210 ------- 1 0.1 1073741824.0 31 31
r 0.27584 0 1 cbr 210 ------- 1 0.1 1073741824.0 44 44
r 0.27584 0 2 cbr 210 ------- 1 0.1 1073741824.0 44 44
+ 0.27625 0 4 cbr 210 ------- 1 0.1 1073741824.0 47 47
+ 0.27625 0 1 cbr 210 ------- 1 0.1 1073741824.0 47 47
- 0.27625 0 1 cbr 210 ------- 1 0.1 1073741824.0 47 47
+ 0.27625 0 2 cbr 210 ------- 1 0.1 1073741824.0 47 47
- 0.27625 0 2 cbr 210 ------- 1 0.1 1073741824.0 47 47
+ 0.27625 0 3 cbr 210 ------- 1 0.1 1073741824.0 47 47
r 0.2784 0 4 cbr 210 ------- 1 0.1 1073741824.0 13 13
r 0.2784 0 3 cbr 210 ------- 1 0.1 1073741824.0 13 13
- 0.2792 0 4 cbr 210 ------- 1 0.1 1073741824.0 32 32
- 0.2792 0 3 cbr 210 ------- 1 0.1 1073741824.0 32 32
r 0.27959 0 1 cbr 210 ------- 1 0.1 1073741824.0 45 45
r 0.27959 0 2 cbr 210 ------- 1 0.1 1073741824.0 45 45
+ 0.28 0 4 cbr 210 ------- 1 0.1 1073741824.0 48 48
+ 0.28 0 1 cbr 210 ------- 1 0.1 1073741824.0 48 48
- 0.28 0 1 cbr 210 ------- 1 0.1 1073741824.0 48 48
+ 0.28 0 2 cbr 210 ------- 1 0.1 1073741824.0 48 48
- 0.28 0 2 cbr 210 ------- 1 0.1 1073741824.0 48 48
+ 0.28 0 3 cbr 210 ------- 1 0.1 1073741824.0 48 48
r 0.28334 0 1 cbr 210 ------- 1 0.1 1073741824.0 46 46
r 0.28334 0 2 cbr 210 ------- 1 0.1 1073741824.0 46 46
+ 0.28375 0 4 cbr 210 ------- 1 0.1 1073741824.0 49 49
+ 0.28375 0 1 cbr 210 ------- 1 0.1 1073741824.0 49 49
- 0.28375 0 1 cbr 210 ------- 1 0.1 1073741824.0 49 49
+ 0.28375 0 2 cbr 210 ------- 1 0.1 1073741824.0 49 49
- 0.28375 0 2 cbr 210 ------- 1 0.1 1073741824.0 49 49
+ 0.28375 0 3 cbr 210 ------- 1 0.1 1073741824.0 49 49
r 0.284 0 4 cbr 210 ------- 1 0.1 1073741824.0 14 14
r 0.284 0 3 cbr 210 ------- 1 0.1 1073741824.0 14 14
- 0.2848 0 4 cbr 210 ------- 1 0.1 1073741824.0 33 33
- 0.2848 0 3 cbr 210 ------- 1 0.1 1073741824.0 33 33
r 0.28709 0 1 cbr 210 ------- 1 0.1 1073741824.0 47 47
r 0.28709 0 2 cbr 210 ------- 1 0.1 1073741824.0 47 47
+ 0.2875 0 4 cbr 210 ------- 1 0.1 1073741824.0 50 50
+ 0.2875 0 1 cbr 210 ------- 1 0.1 1073741824.0 50 50
- 0.2875 0 1 cbr 210 ------- 1 0.1 1073741824.0 50 50
+ 0.2875 0 2 cbr 210 ------- 1 0.1 1073741824.0 50 50
- 0.2875 0 2 cbr 210 ------- 1 0.1 1073741824.0 50 50
+ 0.2875 0 3 cbr 210 ------- 1 0.1 1073741824.0 50 50
r 0.2896 0 4 cbr 210 ------- 1 0.1 1073741824.0 15 15
r 0.2896 0 3 cbr 210 ------- 1 0.1 1073741824.0 15 15
- 0.2904 0 4 cbr 210 ------- 1 0.1 1073741824.0 34 34
- 0.2904 0 3 cbr 210 ------- 1 0.1 1073741824.0 34 34
r 0.29084 0 1 cbr 210 ------- 1 0.1 1073741824.0 48 48
r 0.29084 0 2 cbr 210 ------- 1 0.1 1073741824.0 48 48
+ 0.29125 0 4 cbr 210 ------- 1 0.1 1073741824.0 51 51
+ 0.29125 0 1 cbr 210 ------- 1 0.1 1073741824.0 51 51
- 0.29125 0 1 cbr 210 ------- 1 0.1 1073741824.0 51 51
+ 0.29125 0 2 cbr 210 ------- 1 0.1 1073741824.0 51 51
- 0.29125 0 2 cbr 210 ------- 1 0.1 1073741824.0 51 51
+ 0.29125 0 3 cbr 210 ------- 1 0.1 1073741824.0 51 51
r 0.29459 0 1 cbr 210 ------- 1 0.1 1073741824.0 49 49
r 0.29459 0 2 cbr 210 ------- 1 0.1 1073741824.0 49 49
+ 0.295 0 4 cbr 210 ------- 1 0.1 1073741824.0 52 52
+ 0.295 0 1 cbr 210 ------- 1 0.1 1073741824.0 52 52
- 0.295 0 1 cbr 210 ------- 1 0.1 1073741824.0 52 52
+ 0.295 0 2 cbr 210 ------- 1 0.1 1073741824.0 52 52
- 0.295 0 2 cbr 210 ------- 1 0.1 1073741824.0 52 52
+ 0.295 0 3 cbr 210 ------- 1 0.1 1073741824.0 52 52
r 0.2952 0 4 cbr 210 ------- 1 0.1 1073741824.0 16 16
r 0.2952 0 3 cbr 210 ------- 1 0.1 1073741824.0 16 16
- 0.296 0 4 cbr 210 ------- 1 0.1 1073741824.0 35 35
- 0.296 0 3 cbr 210 ------- 1 0.1 1073741824.0 35 35
r 0.29834 0 1 cbr 210 ------- 1 0.1 1073741824.0 50 50
r 0.29834 0 2 cbr 210 ------- 1 0.1 1073741824.0 50 50
+ 0.29875 0 4 cbr 210 ------- 1 0.1 1073741824.0 53 53
+ 0.29875 0 1 cbr 210 ------- 1 0.1 1073741824.0 53 53
- 0.29875 0 1 cbr 210 ------- 1 0.1 1073741824.0 53 53
+ 0.29875 0 2 cbr 210 ------- 1 0.1 1073741824.0 53 53
- 0.29875 0 2 cbr 210 ------- 1 0.1 1073741824.0 53 53
+ 0.29875 0 3 cbr 210 ------- 1 0.1 1073741824.0 53 53
r 0.3008 0 4 cbr 210 ------- 1 0.1 1073741824.0 17 17
r 0.3008 0 3 cbr 210 ------- 1 0.1 1073741824.0 17 17
- 0.3016 0 4 cbr 210 ------- 1 0.1 1073741824.0 36 36
- 0.3016 0 3 cbr 210 ------- 1 0.1 1073741824.0 36 36
r 0.30209 0 1 cbr 210 ------- 1 0.1 1073741824.0 51 51
r 0.30209 0 2 cbr 210 ------- 1 0.1 1073741824.0 51 51
+ 0.3025 0 4 cbr 210 ------- 1 0.1 1073741824.0 54 54
+ 0.3025 0 1 cbr 210 ------- 1 0.1 1073741824.0 54 54
- 0.3025 0 1 cbr 210 ------- 1 0.1 1073741824.0 54 54
+ 0.3025 0 2 cbr 210 ------- 1 0.1 1073741824.0 54 54
- 0.3025 0 2 cbr 210 ------- 1 0.1 1073741824.0 54 54
+ 0.3025 0 3 cbr 210 ------- 1 0.1 1073741824.0 54 54
r 0.30584 0 1 cbr 210 ------- 1 0.1 1073741824.0 52 52
r 0.30584 0 2 cbr 210 ------- 1 0.1 1073741824.0 52 52
+ 0.30625 0 4 cbr 210 ------- 1 0.1 1073741824.0 55 55
+ 0.30625 0 1 cbr 210 ------- 1 0.1 1073741824.0 55 55
- 0.30625 0 1 cbr 210 ------- 1 0.1 1073741824.0 55 55
+ 0.30625 0 2 cbr 210 ------- 1 0.1 1073741824.0 55 55
- 0.30625 0 2 cbr 210 ------- 1 0.1 1073741824.0 55 55
+ 0.30625 0 3 cbr 210 ------- 1 0.1 1073741824.0 55 55
r 0.3064 0 4 cbr 210 ------- 1 0.1 1073741824.0 18 18