V -t * -v 1.0a5 -a 0
A -t * -n 1 -p 0 -o 0x7fffffff -c 30 -a 1
A -t * -h 1 -m 1073741823 -s 0
c -t * -i 1 -n Red
n -t * -a 4 -s 4 -S UP -v circle -c black -i black
n -t * -a 0 -s 0 -S UP -v circle -c black -i black
n -t * -a 1 -s 1 -S UP -v circle -c black -i black
n -t * -a 2 -s 2 -S UP -v circle -c black -i black
n -t * -a 3 -s 3 -S UP -v circle -c black -i black
l -t * -s 0 -d 1 -S UP -r 2000000 -D 0.01 -c black
l -t * -s 0 -d 2 -S UP -r 2000000 -D 0.01 -c black
l -t * -s 0 -d 3 -S UP -r 300000 -D 0.10000000000000001 -c black
l -t * -s 1 -d 4 -S UP -r 300000 -D 0.10000000000000001 -c black
v -t 0.3 -e sim_annotation 0.3 0.29999999999999999 4 join-group 1073741824
+ -t 0.4 -s 0 -d 1 -p cbr -e 210 -c 1 -i 0 -a 1 -x {0.1 1073741824.0 0 ------- null}
- -t 0.4 -s 0 -d 1 -p cbr -e 210 -c 1 -i 0 -a 1 -x {0.1 1073741824.0 0 ------- null}
h -t 0.4 -s 0 -d 1 -p cbr -e 210 -c 1 -i 0 -a 1 -x {0.1 1073741824.0 -1 ------- null}
+ -t 0.4 -s 0 -d 2 -p cbr -e 210 -c 1 -i 0 -a 1 -x {0.1 1073741824.0 0 ------- null}
- -t 0.4 -s 0 -d 2 -p cbr -e 210 -c 1 -i 0 -a 1 -x {0.1 1073741824.0 0 ------- null}
h -t 0.4 -s 0 -d 2 -p cbr -e 210 -c 1 -i 0 -a 1 -x {0.1 1073741824.0 -1 ------- null}
+ -t 0.4 -s 0 -d 3 -p cbr -e 210 -c 1 -i 0 -a 1 -x {0.1 1073741824.0 0 ------- null}
- -t 0.4 -s 0 -d 3 -p cbr -e 210 -c 1 -i 0 -a 1 -x {0.1 1073741824.0 0 ------- null}
h -t 0.4 -s 0 -d 3 -p cbr -e 210 -c 1 -i 0 -a 1 -x {0.1 1073741824.0 -1 ------- null}
+ -t 0.40375 -s 0 -d 1 -p cbr -e 210 -c 1 -i 1 -a 1 -x {0.1 1073741824.0 1 ------- null}
- -t 0.40375 -s 0 -d 1 -p cbr -e 210 -c 1 -i 1 -a 1 -x {0.1 1073741824.0 1 ------- null}
h -t 0.40375 -s 0 -d 1 -p cbr -e 210 -c 1 -i 1 -a 1 -x {0.1 1073741824.0 -1 ------- null}
+ -t 0.40375 -s 0 -d 2 -p cbr -e 210 -c 1 -i 1 -a 1 -x {0.1 1073741824.0 1 ------- null}
- -t 0.40375 -s 0 -d 2 -p cbr -e 210 -c 1 -i 1 -a 1 -x {0.1 1073741824.0 1 ------- null}
h -t 0.40375 -s 0 -d 2 -p cbr -e 210 -c 1 -i 1 -a 1 -x {0.1 1073741824.0 -1 ------- null}
+ -t 0.40375 -s 0 -d 3 -p cbr -e 210 -c 1 -i 1 -a 1 -x {0.1 1073741824.0 1 ------- null}
- -t 0.4056 -s 0 -d 3 -p cbr -e 210 -c 1 -i 1 -a 1 -x {0.1 1073741824.0 1 ------- null}
h -t 0.4056 -s 0 -d 3 -p cbr -e 210 -c 1 -i 1 -a 1 -x {0.1 1073741824.0 -1 ------- null}
+ -t 0.4075 -s 0 -d 1 -p cbr -e 210 -c 1 -i 2 -a 1 -x {0.1 1073741824.0 2 ------- null}
- -t 0.4075 -s 0 -d 1 -p cbr -e 210 -c 1 -i 2 -a 1 -x {0.1 1073741824.0 2 ------- null}
h -t 0.4075 -s 0 -d 1 -p cbr -e 210 -c 1 -i 2 -a 1 -x {0.1 1073741824.0 -1 ------- null}
+ -t 0.4075 -s 0 -d 2 -p cbr -e 210 -c 1 -i 2 -a 1 -x {0.1 1073741824.0 2 ------- null}
- -t 0.4075 -s 0 -d 2 -p cbr -e 210 -c 1 -i 2 -a 1 -x {0.1 1073741824.0 2 ------- null}
h -t 0.4075 -s 0 -d 2 -p cbr -e 210 -c 1 -i 2 -a 1 -x {0.1 1073741824.0 -1 ------- null}
+ -t 0.4075 -s 0 -d 3 -p cbr -e 210 -c 1 -i 2 -a 1 -x {0.1 1073741824.0 2 ------- null}
r -t 0.41084 -s 0 -d 1 -p cbr -e 210 -c 1 -i 0 -a 1 -x {0.1 1073741824.0 0 ------- null}
+ -t 0.41084 -s 1 -d 4 -p cbr -e 210 -c 1 -i 0 -a 1 -x {0.1 1073741824.0 0 ------- null}
- -t 0.41084 -s 1 -d 4 -p cbr -e 210 -c 1 -i 0 -a 1 -x {0.1 1073741824.0 0 ------- null}
h -t 0.41084 -s 1 -d 4 -p cbr -e 210 -c 1 -i 0 -a 1 -x {0.1 1073741824.0 -1 ------- null}
r -t 0.41084 -s 0 -d 2 -p cbr -e 210 -c 1 -i 0 -a 1 -x {0.1 1073741824.0 0 ------- null}
+ -t 0.41084 -s 2 -d 0 -p prune -e 80 -c 30 -i 3 -a 30 -x {2.0 0.0 -1 ------- null}
- -t 0.41084 -s 2 -d 0 -p prune -e 80 -c 30 -i 3 -a 30 -x {2.0 0.0 -1 ------- null}
h -t 0.41084 -s 2 -d 0 -p prune -e 80 -c 30 -i 3 -a 30 -x {2.0 0.0 -1 ------- null}
- -t 0.4112 -s 0 -d 3 -p cbr -e 210 -c 1 -i 2 -a 1 -x {0.1 1073741824.0 2 ------- null}
h -t 0.4112 -s 0 -d 3 -p cbr -e 210 -c 1 -i 2 -a 1 -x {0.1 1073741824.0 -1 ------- null}
+ -t 0.41125 -s 0 -d 1 -p cbr -e 210 -c 1 -i 4 -a 1 -x {0.1 1073741824.0 3 ------- null}
- -t 0.41125 -s 0 -d 1 -p cbr -e 210 -c 1 -i 4 -a 1 -x {0.1 1073741824.0 3 ------- null}
h -t 0.41125 -s 0 -d 1 -p cbr -e 210 -c 1 -i 4 -a 1 -x {0.1 1073741824.0 -1 ------- null}
+ -t 0.41125 -s 0 -d 2 -p cbr -e 210 -c 1 -i 4 -a 1 -x {0.1 1073741824.0 3 ------- null}
- -t 0.41125 -s 0 -d 2 -p cbr -e 210 -c 1 -i 4 -a 1 -x {0.1 1073741824.0 3 ------- null}
h -t 0.41125 -s 0 -d 2 -p cbr -e 210 -c 1 -i 4 -a 1 -x {0.1 1073741824.0 -1 ------- null}
+ -t 0.41125 -s 0 -d 3 -p cbr -e 210 -c 1 -i 4 -a 1 -x {0.1 1073741824.0 3 ------- null}
r -t 0.41459 -s 0 -d 1 -p cbr -e 210 -c 1 -i 1 -a 1 -x {0.1 1073741824.0 1 ------- null}
+ -t 0.41459 -s 1 -d 4 -p cbr -e 210 -c 1 -i 1 -a 1 -x {0.1 1073741824.0 1 ------- null}
r -t 0.41459 -s 0 -d 2 -p cbr -e 210 -c 1 -i 1 -a 1 -x {0.1 1073741824.0 1 ------- null}
+ -t 0.41459 -s 2 -d 0 -p prune -e 80 -c 30 -i 5 -a 30 -x {2.0 0.0 -1 ------- null}
- -t 0.41459 -s 2 -d 0 -p prune -e 80 -c 30 -i 5 -a 30 -x {2.0 0.0 -1 ------- null}
h -t 0.41459 -s 2 -d 0 -p prune -e 80 -c 30 -i 5 -a 30 -x {2.0 0.0 -1 ------- null}
+ -t 0.415 -s 0 -d 1 -p cbr -e 210 -c 1 -i 6 -a 1 -x {0.1 1073741824.0 4 ------- null}
- -t 0.415 -s 0 -d 1 -p cbr -e 210 -c 1 -i 6 -a 1 -x {0.1 1073741824.0 4 ------- null}
h -t 0.415 -s 0 -d 1 -p cbr -e 210 -c 1 -i 6 -a 1 -x {0.1 1073741824.0 -1 ------- null}
+ -t 0.415 -s 0 -d 2 -p cbr -e 210 -c 1 -i 6 -a 1 -x {0.1 1073741824.0 4 ------- null}
- -t 0.415 -s 0 -d 2 -p cbr -e 210 -c 1 -i 6 -a 1 -x {0.1 1073741824.0 4 ------- null}
h -t 0.415 -s 0 -d 2 -p cbr -e 210 -c 1 -i 6 -a 1 -x {0.1 1073741824.0 -1 ------- null}
+ -t 0.415 -s 0 -d 3 -p cbr -e 210 -c 1 -i 6 -a 1 -x {0.1 1073741824.0 4 ------- null}
- -t 0.41644 -s 1 -d 4 -p cbr -e 210 -c 1 -i 1 -a 1 -x {0.1 1073741824.0 1 ------- null}
h -t 0.41644 -s 1 -d 4 -p cbr -e 210 -c 1 -i 1 -a 1 -x {0.1 1073741824.0 -1 ------- null}
- -t 0.4168 -s 0 -d 3 -p cbr -e 210 -c 1 -i 4 -a 1 -x {0.1 1073741824.0 3 ------- null}
h -t 0.4168 -s 0 -d 3 -p cbr -e 210 -c 1 -i 4 -a 1 -x {0.1 1073741824.0 -1 ------- null}
r -t 0.41834 -s 0 -d 1 -p cbr -e 210 -c 1 -i 2 -a 1 -x {0.1 1073741824.0 2 ------- null}
+ -t 0.41834 -s 1 -d 4 -p cbr -e 210 -c 1 -i 2 -a 1 -x {0.1 1073741824.0 2 ------- null}
r -t 0.41834 -s 0 -d 2 -p cbr -e 210 -c 1 -i 2 -a 1 -x {0.1 1073741824.0 2 ------- null}
+ -t 0.41834 -s 2 -d 0 -p prune -e 80 -c 30 -i 7 -a 30 -x {2.0 0.0 -1 ------- null}
- -t 0.41834 -s 2 -d 0 -p prune -e 80 -c 30 -i 7 -a 30 -x {2.0 0.0 -1 ------- null}
h -t 0.41834 -s 2 -d 0 -p prune -e 80 -c 30 -i 7 -a 30 -x {2.0 0.0 -1 ------- null}
+ -t 0.41875 -s 0 -d 1 -p cbr -e 210 -c 1 -i 8 -a 1 -x {0.1 1073741824.0 5 ------- null}
- -t 0.41875 -s 0 -d 1 -p cbr -e 210 -c 1 -i 8 -a 1 -x {0.1 1073741824.0 5 ------- null}
h -t 0.41875 -s 0 -d 1 -p cbr -e 210 -c 1 -i 8 -a 1 -x {0.1 1073741824.0 -1 ------- null}
+ -t 0.41875 -s 0 -d 2 -p cbr -e 210 -c 1 -i 8 -a 1 -x {0.1 1073741824.0 5 ------- null}
- -t 0.41875 -s 0 -d 2 -p cbr -e 210 -c 1 -i 8 -a 1 -x {0.1 1073741824.0 5 ------- null}
h -t 0.41875 -s 0 -d 2 -p cbr -e 210 -c 1 -i 8 -a 1 -x {0.1 1073741824.0 -1 ------- null}
+ -t 0.41875 -s 0 -d 3 -p cbr -e 210 -c 1 -i 8 -a 1 -x {0.1 1073741824.0 5 ------- null}
r -t 0.42116 -s 2 -d 0 -p prune -e 80 -c 30 -i 3 -a 30 -x {2.0 0.0 -1 ------- null}
- -t 0.42204 -s 1 -d 4 -p cbr -e 210 -c 1 -i 2 -a 1 -x {0.1 1073741824.0 2 ------- null}
h -t 0.42204 -s 1 -d 4 -p cbr -e 210 -c 1 -i 2 -a 1 -x {0.1 1073741824.0 -1 ------- null}
r -t 0.42209 -s 0 -d 1 -p cbr -e 210 -c 1 -i 4 -a 1 -x {0.1 1073741824.0 3 ------- null}
+ -t 0.42209 -s 1 -d 4 -p cbr -e 210 -c 1 -i 4 -a 1 -x {0.1 1073741824.0 3 ------- null}
r -t 0.42209 -s 0 -d 2 -p cbr -e 210 -c 1 -i 4 -a 1 -x {0.1 1073741824.0 3 ------- null}
+ -t 0.42209 -s 2 -d 0 -p prune -e 80 -c 30 -i 9 -a 30 -x {2.0 0.0 -1 ------- null}
- -t 0.42209 -s 2 -d 0 -p prune -e 80 -c 30 -i 9 -a 30 -x {2.0 0.0 -1 ------- null}
h -t 0.42209 -s 2 -d 0 -p prune -e 80 -c 30 -i 9 -a 30 -x {2.0 0.0 -1 ------- null}
- -t 0.4224 -s 0 -d 3 -p cbr -e 210 -c 1 -i 6 -a 1 -x {0.1 1073741824.0 4 ------- null}
h -t 0.4224 -s 0 -d 3 -p cbr -e 210 -c 1 -i 6 -a 1 -x {0.1 1073741824.0 -1 ------- null}
+ -t 0.4225 -s 0 -d 1 -p cbr -e 210 -c 1 -i 10 -a 1 -x {0.1 1073741824.0 6 ------- null}
- -t 0.4225 -s 0 -d 1 -p cbr -e 210 -c 1 -i 10 -a 1 -x {0.1 1073741824.0 6 ------- null}
h -t 0.4225 -s 0 -d 1 -p cbr -e 210 -c 1 -i 10 -a 1 -x {0.1 1073741824.0 -1 ------- null}
+ -t 0.4225 -s 0 -d 3 -p cbr -e 210 -c 1 -i 10 -a 1 -x {0.1 1073741824.0 6 ------- null}
r -t 0.42491 -s 2 -d 0 -p prune -e 80 -c 30 -i 5 -a 30 -x {2.0 0.0 -1 ------- null}
r -t 0.42584 -s 0 -d 1 -p cbr -e 210 -c 1 -i 6 -a 1 -x {0.1 1073741824.0 4 ------- null}
+ -t 0.42584 -s 1 -d 4 -p cbr -e 210 -c 1 -i 6 -a 1 -x {0.1 1073741824.0 4 ------- null}
r -t 0.42584 -s 0 -d 2 -p cbr -e 210 -c 1 -i 6 -a 1 -x {0.1 1073741824.0 4 ------- null}
+ -t 0.42584 -s 2 -d 0 -p prune -e 80 -c 30 -i 11 -a 30 -x {2.0 0.0 -1 ------- null}
- -t 0.42584 -s 2 -d 0 -p prune -e 80 -c 30 -i 11 -a 30 -x {2.0 0.0 -1 ------- null}
h -t 0.42584 -s 2 -d 0 -p prune -e 80 -c 30 -i 11 -a 30 -x {2.0 0.0 -1 ------- null}
+ -t 0.42625 -s 0 -d 1 -p cbr -e 210 -c 1 -i 12 -a 1 -x {0.1 1073741824.0 7 ------- null}
- -t 0.42625 -s 0 -d 1 -p cbr -e 210 -c 1 -i 12 -a 1 -x {0.1 1073741824.0 7 ------- null}
h -t 0.42625 -s 0 -d 1 -p cbr -e 210 -c 1 -i 12 -a 1 -x {0.1 1073741824.0 -1 ------- null}
+ -t 0.42625 -s 0 -d 3 -p cbr -e 210 -c 1 -i 12 -a 1 -x {0.1 1073741824.0 7 ------- null}
- -t 0.42764 -s 1 -d 4 -p cbr -e 210 -c 1 -i 4 -a 1 -x {0.1 1073741824.0 3 ------- null}
h -t 0.42764 -s 1 -d 4 -p cbr -e 210 -c 1 -i 4 -a 1 -x {0.1 1073741824.0 -1 ------- null}
- -t 0.428 -s 0 -d 3 -p cbr -e 210 -c 1 -i 8 -a 1 -x {0.1 1073741824.0 5 ------- null}
h -t 0.428 -s 0 -d 3 -p cbr -e 210 -c 1 -i 8 -a 1 -x {0.1 1073741824.0 -1 ------- null}
r -t 0.42866 -s 2 -d 0 -p prune -e 80 -c 30 -i 7 -a 30 -x {2.0 0.0 -1 ------- null}
r -t 0.42959 -s 0 -d 1 -p cbr -e 210 -c 1 -i 8 -a 1 -x {0.1 1073741824.0 5 ------- null}
+ -t 0.42959 -s 1 -d 4 -p cbr -e 210 -c 1 -i 8 -a 1 -x {0.1 1073741824.0 5 ------- null}
r -t 0.42959 -s 0 -d 2 -p cbr -e 210 -c 1 -i 8 -a 1 -x {0.1 1073741824.0 5 ------- null}
+ -t 0.42959 -s 2 -d 0 -p prune -e 80 -c 30 -i 13 -a 30 -x {2.0 0.0 -1 ------- null}
- -t 0.42959 -s 2 -d 0 -p prune -e 80 -c 30 -i 13 -a 30 -x {2.0 0.0 -1 ------- null}
h -t 0.42959 -s 2 -d 0 -p prune -e 80 -c 30 -i 13 -a 30 -x {2.0 0.0 -1 ------- null}
+ -t 0.43 -s 0 -d 1 -p cbr -e 210 -c 1 -i 14 -a 1 -x {0.1 1073741824.0 8 ------- null}
- -t 0.43 -s 0 -d 1 -p cbr -e 210 -c 1 -i 14 -a 1 -x {0.1 1073741824.0 8 ------- null}
h -t 0.43 -s 0 -d 1 -p cbr -e 210 -c 1 -i 14 -a 1 -x {0.1 1073741824.0 -1 ------- null}
+ -t 0.43 -s 0 -d 3 -p cbr -e 210 -c 1 -i 14 -a 1 -x {0.1 1073741824.0 8 ------- null}
r -t 0.43241 -s 2 -d 0 -p prune -e 80 -c 30 -i 9 -a 30 -x {2.0 0.0 -1 ------- null}
- -t 0.43324 -s 1 -d 4 -p cbr -e 210 -c 1 -i 6 -a 1 -x {0.1 1073741824.0 4 ------- null}
h -t 0.43324 -s 1 -d 4 -p cbr -e 210 -c 1 -i 6 -a 1 -x {0.1 1073741824.0 -1 ------- null}
r -t 0.43334 -s 0 -d 1 -p cbr -e 210 -c 1 -i 10 -a 1 -x {0.1 1073741824.0 6 ------- null}
+ -t 0.43334 -s 1 -d 4 -p cbr -e 210 -c 1 -i 10 -a 1 -x {0.1 1073741824.0 6 ------- null}
- -t 0.4336 -s 0 -d 3 -p cbr -e 210 -c 1 -i 10 -a 1 -x {0.1 1073741824.0 6 ------- null}
h -t 0.4336 -s 0 -d 3 -p cbr -e 210 -c 1 -i 10 -a 1 -x {0.1 1073741824.0 -1 ------- null}
+ -t 0.43375 -s 0 -d 1 -p cbr -e 210 -c 1 -i 15 -a 1 -x {0.1 1073741824.0 9 ------- null}
- -t 0.43375 -s 0 -d 1 -p cbr -e 210 -c 1 -i 15 -a 1 -x {0.1 1073741824.0 9 ------- null}
h -t 0.43375 -s 0 -d 1 -p cbr -e 210 -c 1 -i 15 -a 1 -x {0.1 1073741824.0 -1 ------- null}
+ -t 0.43375 -s 0 -d 3 -p cbr -e 210 -c 1 -i 15 -a 1 -x {0.1 1073741824.0 9 ------- null}
r -t 0.43616 -s 2 -d 0 -p prune -e 80 -c 30 -i 11 -a 30 -x {2.0 0.0 -1 ------- null}
r -t 0.43709 -s 0 -d 1 -p cbr -e 210 -c 1 -i 12 -a 1 -x {0.1 1073741824.0 7 ------- null}
+ -t 0.43709 -s 1 -d 4 -p cbr -e 210 -c 1 -i 12 -a 1 -x {0.1 1073741824.0 7 ------- null}
+ -t 0.4375 -s 0 -d 1 -p cbr -e 210 -c 1 -i 16 -a 1 -x {0.1 1073741824.0 10 ------- null}
- -t 0.4375 -s 0 -d 1 -p cbr -e 210 -c 1 -i 16 -a 1 -x {0.1 1073741824.0 10 ------- null}
h -t 0.4375 -s 0 -d 1 -p cbr -e 210 -c 1 -i 16 -a 1 -x {0.1 1073741824.0 -1 ------- null}
+ -t 0.4375 -s 0 -d 3 -p cbr -e 210 -c 1 -i 16 -a 1 -x {0.1 1073741824.0 10 ------- null}
- -t 0.43884 -s 1 -d 4 -p cbr -e 210 -c 1 -i 8 -a 1 -x {0.1 1073741824.0 5 ------- null}
h -t 0.43884 -s 1 -d 4 -p cbr -e 210 -c 1 -i 8 -a 1 -x {0.1 1073741824.0 -1 ------- null}
- -t 0.4392 -s 0 -d 3 -p cbr -e 210 -c 1 -i 12 -a 1 -x {0.1 1073741824.0 7 ------- null}
h -t 0.4392 -s 0 -d 3 -p cbr -e 210 -c 1 -i 12 -a 1 -x {0.1 1073741824.0 -1 ------- null}
r -t 0.43991 -s 2 -d 0 -p prune -e 80 -c 30 -i 13 -a 30 -x {2.0 0.0 -1 ------- null}
r -t 0.44084 -s 0 -d 1 -p cbr -e 210 -c 1 -i 14 -a 1 -x {0.1 1073741824.0 8 ------- null}
+ -t 0.44084 -s 1 -d 4 -p cbr -e 210 -c 1 -i 14 -a 1 -x {0.1 1073741824.0 8 ------- null}
+ -t 0.44125 -s 0 -d 1 -p cbr -e 210 -c 1 -i 17 -a 1 -x {0.1 1073741824.0 11 ------- null}
- -t 0.44125 -s 0 -d 1 -p cbr -e 210 -c 1 -i 17 -a 1 -x {0.1 1073741824.0 11 ------- null}
h -t 0.44125 -s 0 -d 1 -p cbr -e 210 -c 1 -i 17 -a 1 -x {0.1 1073741824.0 -1 ------- null}
+ -t 0.44125 -s 0 -d 3 -p cbr -e 210 -c 1 -i 17 -a 1 -x {0.1 1073741824.0 11 ------- null}
- -t 0.44444 -s 1 -d 4 -p cbr -e 210 -c 1 -i 10 -a 1 -x {0.1 1073741824.0 6 ------- null}
h -t 0.44444 -s 1 -d 4 -p cbr -e 210 -c 1 -i 10 -a 1 -x {0.1 1073741824.0 -1 ------- null}
r -t 0.44459 -s 0 -d 1 -p cbr -e 210 -c 1 -i 15 -a 1 -x {0.1 1073741824.0 9 ------- null}
+ -t 0.44459 -s 1 -d 4 -p cbr -e 210 -c 1 -i 15 -a 1 -x {0.1 1073741824.0 9 ------- null}
- -t 0.4448 -s 0 -d 3 -p cbr -e 210 -c 1 -i 14 -a 1 -x {0.1 1073741824.0 8 ------- null}
h -t 0.4448 -s 0 -d 3 -p cbr -e 210 -c 1 -i 14 -a 1 -x {0.1 1073741824.0 -1 ------- null}
+ -t 0.445 -s 0 -d 1 -p cbr -e 210 -c 1 -i 18 -a 1 -x {0.1 1073741824.0 12 ------- null}
- -t 0.445 -s 0 -d 1 -p cbr -e 210 -c 1 -i 18 -a 1 -x {0.1 1073741824.0 12 ------- null}
h -t 0.445 -s 0 -d 1 -p cbr -e 210 -c 1 -i 18 -a 1 -x {0.1 1073741824.0 -1 ------- null}
+ -t 0.445 -s 0 -d 3 -p cbr -e 210 -c 1 -i 18 -a 1 -x {0.1 1073741824.0 12 ------- null}
r -t 0.44834 -s 0 -d 1 -p cbr -e 210 -c 1 -i 16 -a 1 -x {0.1 1073741824.0 10 ------- null}
+ -t 0.44834 -s 1 -d 4 -p cbr -e 210 -c 1 -i 16 -a 1 -x {0.1 1073741824.0 10 ------- null}
+ -t 0.44875 -s 0 -d 1 -p cbr -e 210 -c 1 -i 19 -a 1 -x {0.1 1073741824.0 13 ------- null}
- -t 0.44875 -s 0 -d 1 -p cbr -e 210 -c 1 -i 19 -a 1 -x {0.1 1073741824.0 13 ------- null}
h -t 0.44875 -s 0 -d 1 -p cbr -e 210 -c 1 -i 19 -a 1 -x {0.1 1073741824.0 -1 ------- null}
+ -t 0.44875 -s 0 -d 3 -p cbr -e 210 -c 1 -i 19 -a 1 -x {0.1 1073741824.0 13 ------- null}
- -t 0.45004 -s 1 -d 4 -p cbr -e 210 -c 1 -i 12 -a 1 -x {0.1 1073741824.0 7 ------- null}
h -t 0.45004 -s 1 -d 4 -p cbr -e 210 -c 1 -i 12 -a 1 -x {0.1 1073741824.0 -1 ------- null}
- -t 0.4504 -s 0 -d 3 -p cbr -e 210 -c 1 -i 15 -a 1 -x {0.1 1073741824.0 9 ------- null}
h -t 0.4504 -s 0 -d 3 -p cbr -e 210 -c 1 -i 15 -a 1 -x {0.1 1073741824.0 -1 ------- null}
r -t 0.45209 -s 0 -d 1 -p cbr -e 210 -c 1 -i 17 -a 1 -x {0.1 1073741824.0 11 ------- null}
+ -t 0.45209 -s 1 -d 4 -p cbr -e 210 -c 1 -i 17 -a 1 -x {0.1 1073741824.0 11 ------- null}
+ -t 0.4525 -s 0 -d 1 -p cbr -e 210 -c 1 -i 20 -a 1 -x {0.1 1073741824.0 14 ------- null}
- -t 0.4525 -s 0 -d 1 -p cbr -e 210 -c 1 -i 20 -a 1 -x {0.1 1073741824.0 14 ------- null}
h -t 0.4525 -s 0 -d 1 -p cbr -e 210 -c 1 -i 20 -a 1 -x {0.1 1073741824.0 -1 ------- null}
+ -t 0.4525 -s 0 -d 3 -p cbr -e 210 -c 1 -i 20 -a 1 -x {0.1 1073741824.0 14 ------- null}
- -t 0.45564 -s 1 -d 4 -p cbr -e 210 -c 1 -i 14 -a 1 -x {0.1 1073741824.0 8 ------- null}
h -t 0.45564 -s 1 -d 4 -p cbr -e 210 -c 1 -i 14 -a 1 -x {0.1 1073741824.0 -1 ------- null}
r -t 0.45584 -s 0 -d 1 -p cbr -e 210 -c 1 -i 18 -a 1 -x {0.1 1073741824.0 12 ------- null}
+ -t 0.45584 -s 1 -d 4 -p cbr -e 210 -c 1 -i 18 -a 1 -x {0.1 1073741824.0 12 ------- null}
- -t 0.456 -s 0 -d 3 -p cbr -e 210 -c 1 -i 16 -a 1 -x {0.1 1073741824.0 10 ------- null}
h -t 0.456 -s 0 -d 3 -p cbr -e 210 -c 1 -i 16 -a 1 -x {0.1 1073741824.0 -1 ------- null}
+ -t 0.45625 -s 0 -d 1 -p cbr -e 210 -c 1 -i 21 -a 1 -x {0.1 1073741824.0 15 ------- null}
- -t 0.45625 -s 0 -d 1 -p cbr -e 210 -c 1 -i 21 -a 1 -x {0.1 1073741824.0 15 ------- null}
h -t 0.45625 -s 0 -d 1 -p cbr -e 210 -c 1 -i 21 -a 1 -x {0.1 1073741824.0 -1 ------- null}
+ -t 0.45625 -s 0 -d 3 -p cbr -e 210 -c 1 -i 21 -a 1 -x {0.1 1073741824.0 15 ------- null}
r -t 0.45959 -s 0 -d 1 -p cbr -e 210 -c 1 -i 19 -a 1 -x {0.1 1073741824.0 13 ------- null}
+ -t 0.45959 -s 1 -d 4 -p cbr -e 210 -c 1 -i 19 -a 1 -x {0.1 1073741824.0 13 ------- null}
+ -t 0.46 -s 0 -d 1 -p cbr -e 210 -c 1 -i 22 -a 1 -x {0.1 1073741824.0 16 ------- null}
- -t 0.46 -s 0 -d 1 -p cbr -e 210 -c 1 -i 22 -a 1 -x {0.1 1073741824.0 16 ------- null}
h -t 0.46 -s 0 -d 1 -p cbr -e 210 -c 1 -i 22 -a 1 -x {0.1 1073741824.0 -1 ------- null}
+ -t 0.46 -s 0 -d 3 -p cbr -e 210 -c 1 -i 22 -a 1 -x {0.1 1073741824.0 16 ------- null}
- -t 0.46124 -s 1 -d 4 -p cbr -e 210 -c 1 -i 15 -a 1 -x {0.1 1073741824.0 9 ------- null}
h -t 0.46124 -s 1 -d 4 -p cbr -e 210 -c 1 -i 15 -a 1 -x {0.1 1073741824.0 -1 ------- null}
- -t 0.4616 -s 0 -d 3 -p cbr -e 210 -c 1 -i 17 -a 1 -x {0.1 1073741824.0 11 ------- null}
h -t 0.4616 -s 0 -d 3 -p cbr -e 210 -c 1 -i 17 -a 1 -x {0.1 1073741824.0 -1 ------- null}
r -t 0.46334 -s 0 -d 1 -p cbr -e 210 -c 1 -i 20 -a 1 -x {0.1 1073741824.0 14 ------- null}
+ -t 0.46334 -s 1 -d 4 -p cbr -e 210 -c 1 -i 20 -a 1 -x {0.1 1073741824.0 14 ------- null}
+ -t 0.46375 -s 0 -d 1 -p cbr -e 210 -c 1 -i 23 -a 1 -x {0.1 1073741824.0 17 ------- null}
- -t 0.46375 -s 0 -d 1 -p cbr -e 210 -c 1 -i 23 -a 1 -x {0.1 1073741824.0 17 ------- null}
h -t 0.46375 -s 0 -d 1 -p cbr -e 210 -c 1 -i 23 -a 1 -x {0.1 1073741824.0 -1 ------- null}
+ -t 0.46375 -s 0 -d 3 -p cbr -e 210 -c 1 -i 23 -a 1 -x {0.1 1073741824.0 17 ------- null}
- -t 0.46684 -s 1 -d 4 -p cbr -e 210 -c 1 -i 16 -a 1 -x {0.1 1073741824.0 10 ------- null}
h -t 0.46684 -s 1 -d 4 -p cbr -e 210 -c 1 -i 16 -a 1 -x {0.1 1073741824.0 -1 ------- null}
r -t 0.46709 -s 0 -d 1 -p cbr -e 210 -c 1 -i 21 -a 1 -x {0.1 1073741824.0 15 ------- null}
+ -t 0.46709 -s 1 -d 4 -p cbr -e 210 -c 1 -i 21 -a 1 -x {0.1 1073741824.0 15 ------- null}
- -t 0.4672 -s 0 -d 3 -p cbr -e 210 -c 1 -i 18 -a 1 -x {0.1 1073741824.0 12 ------- null}
h -t 0.4672 -s 0 -d 3 -p cbr -e 210 -c 1 -i 18 -a 1 -x {0.1 1073741824.0 -1 ------- null}
+ -t 0.4675 -s 0 -d 1 -p cbr -e 210 -c 1 -i 24 -a 1 -x {0.1 1073741824.0 18 ------- null}
- -t 0.4675 -s 0 -d 1 -p cbr -e 210 -c 1 -i 24 -a 1 -x {0.1 1073741824.0 18 ------- null}
h -t 0.4675 -s 0 -d 1 -p cbr -e 210 -c 1 -i 24 -a 1 -x {0.1 1073741824.0 -1 ------- null}
+ -t 0.4675 -s 0 -d 3 -p cbr -e 210 -c 1 -i 24 -a 1 -x {0.1 1073741824.0 18 ------- null}
r -t 0.47084 -s 0 -d 1 -p cbr -e 210 -c 1 -i 22 -a 1 -x {0.1 1073741824.0 16 ------- null}
+ -t 0.47084 -s 1 -d 4 -p cbr -e 210 -c 1 -i 22 -a 1 -x {0.1 1073741824.0 16 ------- null}
+ -t 0.47125 -s 0 -d 1 -p cbr -e 210 -c 1 -i 25 -a 1 -x {0.1 1073741824.0 19 ------- null}
- -t 0.47125 -s 0 -d 1 -p cbr -e 210 -c 1 -i 25 -a 1 -x {0.1 1073741824.0 19 ------- null}
h -t 0.47125 -s 0 -d 1 -p cbr -e 210 -c 1 -i 25 -a 1 -x {0.1 1073741824.0 -1 ------- null}
+ -t 0.47125 -s 0 -d 3 -p cbr -e 210 -c 1 -i 25 -a 1 -x {0.1 1073741824.0 19 ------- null}
- -t 0.47244 -s 1 -d 4 -p cbr -e 210 -c 1 -i 17 -a 1 -x {0.1 1073741824.0 11 ------- null}
h -t 0.47244 -s 1 -d 4 -p cbr -e 210 -c 1 -i 17 -a 1 -x {0.1 1073741824.0 -1 ------- null}
- -t 0.4728 -s 0 -d 3 -p cbr -e 210 -c 1 -i 19 -a 1 -x {0.1 1073741824.0 13 ------- null}
h -t 0.4728 -s 0 -d 3 -p cbr -e 210 -c 1 -i 19 -a 1 -x {0.1 1073741824.0 -1 ------- null}
r -t 0.47459 -s 0 -d 1 -p cbr -e 210 -c 1 -i 23 -a 1 -x {0.1 1073741824.0 17 ------- null}
+ -t 0.47459 -s 1 -d 4 -p cbr -e 210 -c 1 -i 23 -a 1 -x {0.1 1073741824.0 17 ------- null}
+ -t 0.475 -s 0 -d 1 -p cbr -e 210 -c 1 -i 26 -a 1 -x {0.1 1073741824.0 20 ------- null}
- -t 0.475 -s 0 -d 1 -p cbr -e 210 -c 1 -i 26 -a 1 -x {0.1 1073741824.0 20 ------- null}
h -t 0.475 -s 0 -d 1 -p cbr -e 210 -c 1 -i 26 -a 1 -x {0.1 1073741824.0 -1 ------- null}
+ -t 0.475 -s 0 -d 3 -p cbr -e 210 -c 1 -i 26 -a 1 -x {0.1 1073741824.0 20 ------- null}
- -t 0.47804 -s 1 -d 4 -p cbr -e 210 -c 1 -i 18 -a 1 -x {0.1 1073741824.0 12 ------- null}
h -t 0.47804 -s 1 -d 4 -p cbr -e 210 -c 1 -i 18 -a 1 -x {0.1 1073741824.0 -1 ------- null}
r -t 0.47834 -s 0 -d 1 -p cbr -e 210 -c 1 -i 24 -a 1 -x {0.1 1073741824.0 18 ------- null}
+ -t 0.47834 -s 1 -d 4 -p cbr -e 210 -c 1 -i 24 -a 1 -x {0.1 1073741824.0 18 ------- null}
- -t 0.4784 -s 0 -d 3 -p cbr -e 210 -c 1 -i 20 -a 1 -x {0.1 1073741824.0 14 ------- null}
h -t 0.4784 -s 0 -d 3 -p cbr -e 210 -c 1 -i 20 -a 1 -x {0.1 1073741824.0 -1 ------- null}
+ -t 0.47875 -s 0 -d 1 -p cbr -e 210 -c 1 -i 27 -a 1 -x {0.1 1073741824.0 21 ------- null}
- -t 0.47875 -s 0 -d 1 -p cbr -e 210 -c 1 -i 27 -a 1 -x {0.1 1073741824.0 21 ------- null}
h -t 0.47875 -s 0 -d 1 -p cbr -e 210 -c 1 -i 27 -a 1 -x {0.1 1073741824.0 -1 ------- null}
+ -t 0.47875 -s 0 -d 3 -p cbr -e 210 -c 1 -i 27 -a 1 -x {0.1 1073741824.0 21 ------- null}
r -t 0.48209 -s 0 -d 1 -p cbr -e 210 -c 1 -i 25 -a 1 -x {0.1 1073741824.0 19 ------- null}
+ -t 0.48209 -s 1 -d 4 -p cbr -e 210 -c 1 -i 25 -a 1 -x {0.1 1073741824.0 19 ------- null}
+ -t 0.482499999999999 -s 0 -d 1 -p cbr -e 210 -c 1 -i 28 -a 1 -x {0.1 1073741824.0 22 ------- null}
- -t 0.482499999999999 -s 0 -d 1 -p cbr -e 210 -c 1 -i 28 -a 1 -x {0.1 1073741824.0 22 ------- null}
h -t 0.482499999999999 -s 0 -d 1 -p cbr -e 210 -c 1 -i 28 -a 1 -x {0.1 1073741824.0 -1 ------- null}
+ -t 0.482499999999999 -s 0 -d 3 -p cbr -e 210 -c 1 -i 28 -a 1 -x {0.1 1073741824.0 22 ------- null}
- -t 0.48364 -s 1 -d 4 -p cbr -e 210 -c 1 -i 19 -a 1 -x {0.1 1073741824.0 13 ------- null}
h -t 0.48364 -s 1 -d 4 -p cbr -e 210 -c 1 -i 19 -a 1 -x {0.1 1073741824.0 -1 ------- null}
- -t 0.484 -s 0 -d 3 -p cbr -e 210 -c 1 -i 21 -a 1 -x {0.1 1073741824.0 15 ------- null}
h -t 0.484 -s 0 -d 3 -p cbr -e 210 -c 1 -i 21 -a 1 -x {0.1 1073741824.0 -1 ------- null}
r -t 0.48584 -s 0 -d 1 -p cbr -e 210 -c 1 -i 26 -a 1 -x {0.1 1073741824.0 20 ------- null}
+ -t 0.48584 -s 1 -d 4 -p cbr -e 210 -c 1 -i 26 -a 1 -x {0.1 1073741824.0 20 ------- null}
+ -t 0.486249999999999 -s 0 -d 1 -p cbr -e 210 -c 1 -i 29 -a 1 -x {0.1 1073741824.0 23 ------- null}
- -t 0.486249999999999 -s 0 -d 1 -p cbr -e 210 -c 1 -i 29 -a 1 -x {0.1 1073741824.0 23 ------- null}
h -t 0.486249999999999 -s 0 -d 1 -p cbr -e 210 -c 1 -i 29 -a 1 -x {0.1 1073741824.0 -1 ------- null}
+ -t 0.486249999999999 -s 0 -d 3 -p cbr -e 210 -c 1 -i 29 -a 1 -x {0.1 1073741824.0 23 ------- null}
- -t 0.48924 -s 1 -d 4 -p cbr -e 210 -c 1 -i 20 -a 1 -x {0.1 1073741824.0 14 ------- null}
h -t 0.48924 -s 1 -d 4 -p cbr -e 210 -c 1 -i 20 -a 1 -x {0.1 1073741824.0 -1 ------- null}
r -t 0.48959 -s 0 -d 1 -p cbr -e 210 -c 1 -i 27 -a 1 -x {0.1 1073741824.0 21 ------- null}
+ -t 0.48959 -s 1 -d 4 -p cbr -e 210 -c 1 -i 27 -a 1 -x {0.1 1073741824.0 21 ------- null}
- -t 0.4896 -s 0 -d 3 -p cbr -e 210 -c 1 -i 22 -a 1 -x {0.1 1073741824.0 16 ------- null}
h -t 0.4896 -s 0 -d 3 -p cbr -e 210 -c 1 -i 22 -a 1 -x {0.1 1073741824.0 -1 ------- null}
+ -t 0.489999999999999 -s 0 -d 1 -p cbr -e 210 -c 1 -i 30 -a 1 -x {0.1 1073741824.0 24 ------- null}
- -t 0.489999999999999 -s 0 -d 1 -p cbr -e 210 -c 1 -i 30 -a 1 -x {0.1 1073741824.0 24 ------- null}
h -t 0.489999999999999 -s 0 -d 1 -p cbr -e 210 -c 1 -i 30 -a 1 -x {0.1 1073741824.0 -1 ------- null}
+ -t 0.489999999999999 -s 0 -d 3 -p cbr -e 210 -c 1 -i 30 -a 1 -x {0.1 1073741824.0 24 ------- null}
r -t 0.49334 -s 0 -d 1 -p cbr -e 210 -c 1 -i 28 -a 1 -x {0.1 1073741824.0 22 ------- null}
+ -t 0.49334 -s 1 -d 4 -p cbr -e 210 -c 1 -i 28 -a 1 -x {0.1 1073741824.0 22 ------- null}
+ -t 0.493749999999999 -s 0 -d 1 -p cbr -e 210 -c 1 -i 31 -a 1 -x {0.1 1073741824.0 25 ------- null}
- -t 0.493749999999999 -s 0 -d 1 -p cbr -e 210 -c 1 -i 31 -a 1 -x {0.1 1073741824.0 25 ------- null}
h -t 0.493749999999999 -s 0 -d 1 -p cbr -e 210 -c 1 -i 31 -a 1 -x {0.1 1073741824.0 -1 ------- null}
+ -t 0.493749999999999 -s 0 -d 3 -p cbr -e 210 -c 1 -i 31 -a 1 -x {0.1 1073741824.0 25 ------- null}
- -t 0.49484 -s 1 -d 4 -p cbr -e 210 -c 1 -i 21 -a 1 -x {0.1 1073741824.0 15 ------- null}
h -t 0.49484 -s 1 -d 4 -p cbr -e 210 -c 1 -i 21 -a 1 -x {0.1 1073741824.0 -1 ------- null}
- -t 0.4952 -s 0 -d 3 -p cbr -e 210 -c 1 -i 23 -a 1 -x {0.1 1073741824.0 17 ------- null}
h -t 0.4952 -s 0 -d 3 -p cbr -e 210 -c 1 -i 23 -a 1 -x {0.1 1073741824.0 -1 ------- null}
r -t 0.497089999999999 -s 0 -d 1 -p cbr -e 210 -c 1 -i 29 -a 1 -x {0.1 1073741824.0 23 ------- null}
+ -t 0.497089999999999 -s 1 -d 4 -p cbr -e 210 -c 1 -i 29 -a 1 -x {0.1 1073741824.0 23 ------- null}
+ -t 0.497499999999999 -s 0 -d 1 -p cbr -e 210 -c 1 -i 32 -a 1 -x {0.1 1073741824.0 26 ------- null}
- -t 0.497499999999999 -s 0 -d 1 -p cbr -e 210 -c 1 -i 32 -a 1 -x {0.1 1073741824.0 26 ------- null}
h -t 0.497499999999999 -s 0 -d 1 -p cbr -e 210 -c 1 -i 32 -a 1 -x {0.1 1073741824.0 -1 ------- null}
+ -t 0.497499999999999 -s 0 -d 3 -p cbr -e 210 -c 1 -i 32 -a 1 -x {0.1 1073741824.0 26 ------- null}
v -t 0.5 -e sim_annotation 0.5 0.5 4 leave-group 1073741824
- -t 0.50044 -s 1 -d 4 -p cbr -e 210 -c 1 -i 22 -a 1 -x {0.1 1073741824.0 16 ------- null}
h -t 0.50044 -s 1 -d 4 -p cbr -e 210 -c 1 -i 22 -a 1 -x {0.1 1073741824.0 -1 ------- null}
- -t 0.5008 -s 0 -d 3 -p cbr -e 210 -c 1 -i 24 -a 1 -x {0.1 1073741824.0 18 ------- null}
h -t 0.5008 -s 0 -d 3 -p cbr -e 210 -c 1 -i 24 -a 1 -x {0.1 1073741824.0 -1 ------- null}
r -t 0.500839999999999 -s 0 -d 1 -p cbr -e 210 -c 1 -i 30 -a 1 -x {0.1 1073741824.0 24 ------- null}
+ -t 0.500839999999999 -s 1 -d 4 -p cbr -e 210 -c 1 -i 30 -a 1 -x {0.1 1073741824.0 24 ------- null}
+ -t 0.501249999999999 -s 0 -d 1 -p cbr -e 210 -c 1 -i 33 -a 1 -x {0.1 1073741824.0 27 ------- null}
- -t 0.501249999999999 -s 0 -d 1 -p cbr -e 210 -c 1 -i 33 -a 1 -x {0.1 1073741824.0 27 ------- null}
h -t 0.501249999999999 -s 0 -d 1 -p cbr -e 210 -c 1 -i 33 -a 1 -x {0.1 1073741824.0 -1 ------- null}
+ -t 0.501249999999999 -s 0 -d 3 -p cbr -e 210 -c 1 -i 33 -a 1 -x {0.1 1073741824.0 27 ------- null}
r -t 0.504589999999999 -s 0 -d 1 -p cbr -e 210 -c 1 -i 31 -a 1 -x {0.1 1073741824.0 25 ------- null}
+ -t 0.504589999999999 -s 1 -d 4 -p cbr -e 210 -c 1 -i 31 -a 1 -x {0.1 1073741824.0 25 ------- null}
+ -t 0.504999999999999 -s 0 -d 1 -p cbr -e 210 -c 1 -i 34 -a 1 -x {0.1 1073741824.0 28 ------- null}
- -t 0.504999999999999 -s 0 -d 1 -p cbr -e 210 -c 1 -i 34 -a 1 -x {0.1 1073741824.0 28 ------- null}
h -t 0.504999999999999 -s 0 -d 1 -p cbr -e 210 -c 1 -i 34 -a 1 -x {0.1 1073741824.0 -1 ------- null}
+ -t 0.504999999999999 -s 0 -d 3 -p cbr -e 210 -c 1 -i 34 -a 1 -x {0.1 1073741824.0 28 ------- null}
r -t 0.5056 -s 0 -d 3 -p cbr -e 210 -c 1 -i 0 -a 1 -x {0.1 1073741824.0 0 ------- null}
+ -t 0.5056 -s 3 -d 0 -p prune -e 80 -c 30 -i 35 -a 30 -x {3.0 0.0 -1 ------- null}
- -t 0.5056 -s 3 -d 0 -p prune -e 80 -c 30 -i 35 -a 30 -x {3.0 0.0 -1 ------- null}
h -t 0.5056 -s 3 -d 0 -p prune -e 80 -c 30 -i 35 -a 30 -x {3.0 0.0 -1 ------- null}
- -t 0.50604 -s 1 -d 4 -p cbr -e 210 -c 1 -i 23 -a 1 -x {0.1 1073741824.0 17 ------- null}
h -t 0.50604 -s 1 -d 4 -p cbr -e 210 -c 1 -i 23 -a 1 -x {0.1 1073741824.0 -1 ------- null}
- -t 0.5064 -s 0 -d 3 -p cbr -e 210 -c 1 -i 25 -a 1 -x {0.1 1073741824.0 19 ------- null}
h -t 0.5064 -s 0 -d 3 -p cbr -e 210 -c 1 -i 25 -a 1 -x {0.1 1073741824.0 -1 ------- null}
r -t 0.508339999999999 -s 0 -d 1 -p cbr -e 210 -c 1 -i 32 -a 1 -x {0.1 1073741824.0 26 ------- null}
+ -t 0.508339999999999 -s 1 -d 4 -p cbr -e 210 -c 1 -i 32 -a 1 -x {0.1 1073741824.0 26 ------- null}
+ -t 0.508749999999999 -s 0 -d 1 -p cbr -e 210 -c 1 -i 36 -a 1 -x {0.1 1073741824.0 29 ------- null}
- -t 0.508749999999999 -s 0 -d 1 -p cbr -e 210 -c 1 -i 36 -a 1 -x {0.1 1073741824.0 29 ------- null}
h -t 0.508749999999999 -s 0 -d 1 -p cbr -e 210 -c 1 -i 36 -a 1 -x {0.1 1073741824.0 -1 ------- null}
+ -t 0.508749999999999 -s 0 -d 3 -p cbr -e 210 -c 1 -i 36 -a 1 -x {0.1 1073741824.0 29 ------- null}
r -t 0.5112 -s 0 -d 3 -p cbr -e 210 -c 1 -i 1 -a 1 -x {0.1 1073741824.0 1 ------- null}
+ -t 0.5112 -s 3 -d 0 -p prune -e 80 -c 30 -i 37 -a 30 -x {3.0 0.0 -1 ------- null}
- -t 0.5112 -s 3 -d 0 -p prune -e 80 -c 30 -i 37 -a 30 -x {3.0 0.0 -1 ------- null}
h -t 0.5112 -s 3 -d 0 -p prune -e 80 -c 30 -i 37 -a 30 -x {3.0 0.0 -1 ------- null}
- -t 0.51164 -s 1 -d 4 -p cbr -e 210 -c 1 -i 24 -a 1 -x {0.1 1073741824.0 18 ------- null}
h -t 0.51164 -s 1 -d 4 -p cbr -e 210 -c 1 -i 24 -a 1 -x {0.1 1073741824.0 -1 ------- null}
- -t 0.512 -s 0 -d 3 -p cbr -e 210 -c 1 -i 26 -a 1 -x {0.1 1073741824.0 20 ------- null}
h -t 0.512 -s 0 -d 3 -p cbr -e 210 -c 1 -i 26 -a 1 -x {0.1 1073741824.0 -1 ------- null}
r -t 0.512089999999999 -s 0 -d 1 -p cbr -e 210 -c 1 -i 33 -a 1 -x {0.1 1073741824.0 27 ------- null}
+ -t 0.512089999999999 -s 1 -d 4 -p cbr -e 210 -c 1 -i 33 -a 1 -x {0.1 1073741824.0 27 ------- null}
+ -t 0.5125 -s 0 -d 1 -p cbr -e 210 -c 1 -i 38 -a 1 -x {0.1 1073741824.0 30 ------- null}
- -t 0.5125 -s 0 -d 1 -p cbr -e 210 -c 1 -i 38 -a 1 -x {0.1 1073741824.0 30 ------- null}
h -t 0.5125 -s 0 -d 1 -p cbr -e 210 -c 1 -i 38 -a 1 -x {0.1 1073741824.0 -1 ------- null}
+ -t 0.5125 -s 0 -d 3 -p cbr -e 210 -c 1 -i 38 -a 1 -x {0.1 1073741824.0 30 ------- null}
r -t 0.515839999999999 -s 0 -d 1 -p cbr -e 210 -c 1 -i 34 -a 1 -x {0.1 1073741824.0 28 ------- null}
+ -t 0.515839999999999 -s 1 -d 4 -p cbr -e 210 -c 1 -i 34 -a 1 -x {0.1 1073741824.0 28 ------- null}
+ -t 0.51625 -s 0 -d 1 -p cbr -e 210 -c 1 -i 39 -a 1 -x {0.1 1073741824.0 31 ------- null}
- -t 0.51625 -s 0 -d 1 -p cbr -e 210 -c 1 -i 39 -a 1 -x {0.1 1073741824.0 31 ------- null}
h -t 0.51625 -s 0 -d 1 -p cbr -e 210 -c 1 -i 39 -a 1 -x {0.1 1073741824.0 -1 ------- null}
+ -t 0.51625 -s 0 -d 3 -p cbr -e 210 -c 1 -i 39 -a 1 -x {0.1 1073741824.0 31 ------- null}