V -t * -v 1.0a5 -a 0
A -t * -n 1 -p 0 -o 0x7fffffff -c 30 -a 1
A -t * -h 1 -m 1073741823 -s 0
c -t * -i 1 -n Red
n -t * -a 4 -s 4 -S UP -v circle -c black -i black
n -t * -a 0 -s 0 -S UP -v circle -c black -i black
n -t * -a 1 -s 1 -S UP -v circle -c black -i black
n -t * -a 2 -s 2 -S UP -v circle -c black -i black
n -t * -a 3 -s 3 -S UP -v circle -c black -i black
l -t * -s 0 -d 1 -S UP -r 2000000 -D 0.01 -c black
l -t * -s 0 -d 2 -S UP -r 2000000 -D 0.01 -c black
l -t * -s 0 -d 3 -S UP -r 300000 -D 0.10000000000000001 -c black
l -t * -s 0 -d 4 -S UP -r 300000 -D 0.10000000000000001 -c black
v -t 0 -e sim_annotation 0 0 1 join-group 1073741824
v -t 0 -e sim_annotation 0 0 2 join-group 1073741824
v -t 0 -e sim_annotation 0 0 3 join-group 1073741824
v -t 0 -e sim_annotation 0 0 4 join-group 1073741824
+ -t 0.1 -s 0 -d 4 -p cbr -e 210 -c 1 -i 0 -a 1 -x {0.1 1073741824.0 0 ------- null}
- -t 0.1 -s 0 -d 4 -p cbr -e 210 -c 1 -i 0 -a 1 -x {0.1 1073741824.0 0 ------- null}
h -t 0.1 -s 0 -d 4 -p cbr -e 210 -c 1 -i 0 -a 1 -x {0.1 1073741824.0 -1 ------- null}
+ -t 0.1 -s 0 -d 1 -p cbr -e 210 -c 1 -i 0 -a 1 -x {0.1 1073741824.0 0 ------- null}
- -t 0.1 -s 0 -d 1 -p cbr -e 210 -c 1 -i 0 -a 1 -x {0.1 1073741824.0 0 ------- null}
h -t 0.1 -s 0 -d 1 -p cbr -e 210 -c 1 -i 0 -a 1 -x {0.1 1073741824.0 -1 ------- null}
+ -t 0.1 -s 0 -d 2 -p cbr -e 210 -c 1 -i 0 -a 1 -x {0.1 1073741824.0 0 ------- null}
- -t 0.1 -s 0 -d 2 -p cbr -e 210 -c 1 -i 0 -a 1 -x {0.1 1073741824.0 0 ------- null}
h -t 0.1 -s 0 -d 2 -p cbr -e 210 -c 1 -i 0 -a 1 -x {0.1 1073741824.0 -1 ------- null}
+ -t 0.1 -s 0 -d 3 -p cbr -e 210 -c 1 -i 0 -a 1 -x {0.1 1073741824.0 0 ------- null}
- -t 0.1 -s 0 -d 3 -p cbr -e 210 -c 1 -i 0 -a 1 -x {0.1 1073741824.0 0 ------- null}
h -t 0.1 -s 0 -d 3 -p cbr -e 210 -c 1 -i 0 -a 1 -x {0.1 1073741824.0 -1 ------- null}
+ -t 0.10375 -s 0 -d 4 -p cbr -e 210 -c 1 -i 1 -a 1 -x {0.1 1073741824.0 1 ------- null}
+ -t 0.10375 -s 0 -d 1 -p cbr -e 210 -c 1 -i 1 -a 1 -x {0.1 1073741824.0 1 ------- null}
- -t 0.10375 -s 0 -d 1 -p cbr -e 210 -c 1 -i 1 -a 1 -x {0.1 1073741824.0 1 ------- null}
h -t 0.10375 -s 0 -d 1 -p cbr -e 210 -c 1 -i 1 -a 1 -x {0.1 1073741824.0 -1 ------- null}
+ -t 0.10375 -s 0 -d 2 -p cbr -e 210 -c 1 -i 1 -a 1 -x {0.1 1073741824.0 1 ------- null}
- -t 0.10375 -s 0 -d 2 -p cbr -e 210 -c 1 -i 1 -a 1 -x {0.1 1073741824.0 1 ------- null}
h -t 0.10375 -s 0 -d 2 -p cbr -e 210 -c 1 -i 1 -a 1 -x {0.1 1073741824.0 -1 ------- null}
+ -t 0.10375 -s 0 -d 3 -p cbr -e 210 -c 1 -i 1 -a 1 -x {0.1 1073741824.0 1 ------- null}
- -t 0.1056 -s 0 -d 4 -p cbr -e 210 -c 1 -i 1 -a 1 -x {0.1 1073741824.0 1 ------- null}
h -t 0.1056 -s 0 -d 4 -p cbr -e 210 -c 1 -i 1 -a 1 -x {0.1 1073741824.0 -1 ------- null}
- -t 0.1056 -s 0 -d 3 -p cbr -e 210 -c 1 -i 1 -a 1 -x {0.1 1073741824.0 1 ------- null}
h -t 0.1056 -s 0 -d 3 -p cbr -e 210 -c 1 -i 1 -a 1 -x {0.1 1073741824.0 -1 ------- null}
+ -t 0.1075 -s 0 -d 4 -p cbr -e 210 -c 1 -i 2 -a 1 -x {0.1 1073741824.0 2 ------- null}
+ -t 0.1075 -s 0 -d 1 -p cbr -e 210 -c 1 -i 2 -a 1 -x {0.1 1073741824.0 2 ------- null}
- -t 0.1075 -s 0 -d 1 -p cbr -e 210 -c 1 -i 2 -a 1 -x {0.1 1073741824.0 2 ------- null}
h -t 0.1075 -s 0 -d 1 -p cbr -e 210 -c 1 -i 2 -a 1 -x {0.1 1073741824.0 -1 ------- null}
+ -t 0.1075 -s 0 -d 2 -p cbr -e 210 -c 1 -i 2 -a 1 -x {0.1 1073741824.0 2 ------- null}
- -t 0.1075 -s 0 -d 2 -p cbr -e 210 -c 1 -i 2 -a 1 -x {0.1 1073741824.0 2 ------- null}
h -t 0.1075 -s 0 -d 2 -p cbr -e 210 -c 1 -i 2 -a 1 -x {0.1 1073741824.0 -1 ------- null}
+ -t 0.1075 -s 0 -d 3 -p cbr -e 210 -c 1 -i 2 -a 1 -x {0.1 1073741824.0 2 ------- null}
r -t 0.11084 -s 0 -d 1 -p cbr -e 210 -c 1 -i 0 -a 1 -x {0.1 1073741824.0 0 ------- null}
r -t 0.11084 -s 0 -d 2 -p cbr -e 210 -c 1 -i 0 -a 1 -x {0.1 1073741824.0 0 ------- null}
- -t 0.1112 -s 0 -d 4 -p cbr -e 210 -c 1 -i 2 -a 1 -x {0.1 1073741824.0 2 ------- null}
h -t 0.1112 -s 0 -d 4 -p cbr -e 210 -c 1 -i 2 -a 1 -x {0.1 1073741824.0 -1 ------- null}
- -t 0.1112 -s 0 -d 3 -p cbr -e 210 -c 1 -i 2 -a 1 -x {0.1 1073741824.0 2 ------- null}
h -t 0.1112 -s 0 -d 3 -p cbr -e 210 -c 1 -i 2 -a 1 -x {0.1 1073741824.0 -1 ------- null}
+ -t 0.11125 -s 0 -d 4 -p cbr -e 210 -c 1 -i 3 -a 1 -x {0.1 1073741824.0 3 ------- null}
+ -t 0.11125 -s 0 -d 1 -p cbr -e 210 -c 1 -i 3 -a 1 -x {0.1 1073741824.0 3 ------- null}
- -t 0.11125 -s 0 -d 1 -p cbr -e 210 -c 1 -i 3 -a 1 -x {0.1 1073741824.0 3 ------- null}
h -t 0.11125 -s 0 -d 1 -p cbr -e 210 -c 1 -i 3 -a 1 -x {0.1 1073741824.0 -1 ------- null}
+ -t 0.11125 -s 0 -d 2 -p cbr -e 210 -c 1 -i 3 -a 1 -x {0.1 1073741824.0 3 ------- null}
- -t 0.11125 -s 0 -d 2 -p cbr -e 210 -c 1 -i 3 -a 1 -x {0.1 1073741824.0 3 ------- null}
h -t 0.11125 -s 0 -d 2 -p cbr -e 210 -c 1 -i 3 -a 1 -x {0.1 1073741824.0 -1 ------- null}
+ -t 0.11125 -s 0 -d 3 -p cbr -e 210 -c 1 -i 3 -a 1 -x {0.1 1073741824.0 3 ------- null}
r -t 0.11459 -s 0 -d 1 -p cbr -e 210 -c 1 -i 1 -a 1 -x {0.1 1073741824.0 1 ------- null}
r -t 0.11459 -s 0 -d 2 -p cbr -e 210 -c 1 -i 1 -a 1 -x {0.1 1073741824.0 1 ------- null}
+ -t 0.115 -s 0 -d 4 -p cbr -e 210 -c 1 -i 4 -a 1 -x {0.1 1073741824.0 4 ------- null}
+ -t 0.115 -s 0 -d 1 -p cbr -e 210 -c 1 -i 4 -a 1 -x {0.1 1073741824.0 4 ------- null}
- -t 0.115 -s 0 -d 1 -p cbr -e 210 -c 1 -i 4 -a 1 -x {0.1 1073741824.0 4 ------- null}
h -t 0.115 -s 0 -d 1 -p cbr -e 210 -c 1 -i 4 -a 1 -x {0.1 1073741824.0 -1 ------- null}
+ -t 0.115 -s 0 -d 2 -p cbr -e 210 -c 1 -i 4 -a 1 -x {0.1 1073741824.0 4 ------- null}
- -t 0.115 -s 0 -d 2 -p cbr -e 210 -c 1 -i 4 -a 1 -x {0.1 1073741824.0 4 ------- null}
h -t 0.115 -s 0 -d 2 -p cbr -e 210 -c 1 -i 4 -a 1 -x {0.1 1073741824.0 -1 ------- null}
+ -t 0.115 -s 0 -d 3 -p cbr -e 210 -c 1 -i 4 -a 1 -x {0.1 1073741824.0 4 ------- null}
- -t 0.1168 -s 0 -d 4 -p cbr -e 210 -c 1 -i 3 -a 1 -x {0.1 1073741824.0 3 ------- null}
h -t 0.1168 -s 0 -d 4 -p cbr -e 210 -c 1 -i 3 -a 1 -x {0.1 1073741824.0 -1 ------- null}
- -t 0.1168 -s 0 -d 3 -p cbr -e 210 -c 1 -i 3 -a 1 -x {0.1 1073741824.0 3 ------- null}
h -t 0.1168 -s 0 -d 3 -p cbr -e 210 -c 1 -i 3 -a 1 -x {0.1 1073741824.0 -1 ------- null}
r -t 0.11834 -s 0 -d 1 -p cbr -e 210 -c 1 -i 2 -a 1 -x {0.1 1073741824.0 2 ------- null}
r -t 0.11834 -s 0 -d 2 -p cbr -e 210 -c 1 -i 2 -a 1 -x {0.1 1073741824.0 2 ------- null}
+ -t 0.11875 -s 0 -d 4 -p cbr -e 210 -c 1 -i 5 -a 1 -x {0.1 1073741824.0 5 ------- null}
+ -t 0.11875 -s 0 -d 1 -p cbr -e 210 -c 1 -i 5 -a 1 -x {0.1 1073741824.0 5 ------- null}
- -t 0.11875 -s 0 -d 1 -p cbr -e 210 -c 1 -i 5 -a 1 -x {0.1 1073741824.0 5 ------- null}
h -t 0.11875 -s 0 -d 1 -p cbr -e 210 -c 1 -i 5 -a 1 -x {0.1 1073741824.0 -1 ------- null}
+ -t 0.11875 -s 0 -d 2 -p cbr -e 210 -c 1 -i 5 -a 1 -x {0.1 1073741824.0 5 ------- null}
- -t 0.11875 -s 0 -d 2 -p cbr -e 210 -c 1 -i 5 -a 1 -x {0.1 1073741824.0 5 ------- null}
h -t 0.11875 -s 0 -d 2 -p cbr -e 210 -c 1 -i 5 -a 1 -x {0.1 1073741824.0 -1 ------- null}
+ -t 0.11875 -s 0 -d 3 -p cbr -e 210 -c 1 -i 5 -a 1 -x {0.1 1073741824.0 5 ------- null}
r -t 0.12209 -s 0 -d 1 -p cbr -e 210 -c 1 -i 3 -a 1 -x {0.1 1073741824.0 3 ------- null}
r -t 0.12209 -s 0 -d 2 -p cbr -e 210 -c 1 -i 3 -a 1 -x {0.1 1073741824.0 3 ------- null}
- -t 0.1224 -s 0 -d 4 -p cbr -e 210 -c 1 -i 4 -a 1 -x {0.1 1073741824.0 4 ------- null}
h -t 0.1224 -s 0 -d 4 -p cbr -e 210 -c 1 -i 4 -a 1 -x {0.1 1073741824.0 -1 ------- null}
- -t 0.1224 -s 0 -d 3 -p cbr -e 210 -c 1 -i 4 -a 1 -x {0.1 1073741824.0 4 ------- null}
h -t 0.1224 -s 0 -d 3 -p cbr -e 210 -c 1 -i 4 -a 1 -x {0.1 1073741824.0 -1 ------- null}
+ -t 0.1225 -s 0 -d 4 -p cbr -e 210 -c 1 -i 6 -a 1 -x {0.1 1073741824.0 6 ------- null}
+ -t 0.1225 -s 0 -d 1 -p cbr -e 210 -c 1 -i 6 -a 1 -x {0.1 1073741824.0 6 ------- null}
- -t 0.1225 -s 0 -d 1 -p cbr -e 210 -c 1 -i 6 -a 1 -x {0.1 1073741824.0 6 ------- null}
h -t 0.1225 -s 0 -d 1 -p cbr -e 210 -c 1 -i 6 -a 1 -x {0.1 1073741824.0 -1 ------- null}
+ -t 0.1225 -s 0 -d 2 -p cbr -e 210 -c 1 -i 6 -a 1 -x {0.1 1073741824.0 6 ------- null}
- -t 0.1225 -s 0 -d 2 -p cbr -e 210 -c 1 -i 6 -a 1 -x {0.1 1073741824.0 6 ------- null}
h -t 0.1225 -s 0 -d 2 -p cbr -e 210 -c 1 -i 6 -a 1 -x {0.1 1073741824.0 -1 ------- null}
+ -t 0.1225 -s 0 -d 3 -p cbr -e 210 -c 1 -i 6 -a 1 -x {0.1 1073741824.0 6 ------- null}
r -t 0.12584 -s 0 -d 1 -p cbr -e 210 -c 1 -i 4 -a 1 -x {0.1 1073741824.0 4 ------- null}
r -t 0.12584 -s 0 -d 2 -p cbr -e 210 -c 1 -i 4 -a 1 -x {0.1 1073741824.0 4 ------- null}
+ -t 0.12625 -s 0 -d 4 -p cbr -e 210 -c 1 -i 7 -a 1 -x {0.1 1073741824.0 7 ------- null}
+ -t 0.12625 -s 0 -d 1 -p cbr -e 210 -c 1 -i 7 -a 1 -x {0.1 1073741824.0 7 ------- null}
- -t 0.12625 -s 0 -d 1 -p cbr -e 210 -c 1 -i 7 -a 1 -x {0.1 1073741824.0 7 ------- null}
h -t 0.12625 -s 0 -d 1 -p cbr -e 210 -c 1 -i 7 -a 1 -x {0.1 1073741824.0 -1 ------- null}
+ -t 0.12625 -s 0 -d 2 -p cbr -e 210 -c 1 -i 7 -a 1 -x {0.1 1073741824.0 7 ------- null}
- -t 0.12625 -s 0 -d 2 -p cbr -e 210 -c 1 -i 7 -a 1 -x {0.1 1073741824.0 7 ------- null}
h -t 0.12625 -s 0 -d 2 -p cbr -e 210 -c 1 -i 7 -a 1 -x {0.1 1073741824.0 -1 ------- null}
+ -t 0.12625 -s 0 -d 3 -p cbr -e 210 -c 1 -i 7 -a 1 -x {0.1 1073741824.0 7 ------- null}
- -t 0.128 -s 0 -d 4 -p cbr -e 210 -c 1 -i 5 -a 1 -x {0.1 1073741824.0 5 ------- null}
h -t 0.128 -s 0 -d 4 -p cbr -e 210 -c 1 -i 5 -a 1 -x {0.1 1073741824.0 -1 ------- null}
- -t 0.128 -s 0 -d 3 -p cbr -e 210 -c 1 -i 5 -a 1 -x {0.1 1073741824.0 5 ------- null}
h -t 0.128 -s 0 -d 3 -p cbr -e 210 -c 1 -i 5 -a 1 -x {0.1 1073741824.0 -1 ------- null}
r -t 0.12959 -s 0 -d 1 -p cbr -e 210 -c 1 -i 5 -a 1 -x {0.1 1073741824.0 5 ------- null}
r -t 0.12959 -s 0 -d 2 -p cbr -e 210 -c 1 -i 5 -a 1 -x {0.1 1073741824.0 5 ------- null}
+ -t 0.13 -s 0 -d 4 -p cbr -e 210 -c 1 -i 8 -a 1 -x {0.1 1073741824.0 8 ------- null}
+ -t 0.13 -s 0 -d 1 -p cbr -e 210 -c 1 -i 8 -a 1 -x {0.1 1073741824.0 8 ------- null}
- -t 0.13 -s 0 -d 1 -p cbr -e 210 -c 1 -i 8 -a 1 -x {0.1 1073741824.0 8 ------- null}
h -t 0.13 -s 0 -d 1 -p cbr -e 210 -c 1 -i 8 -a 1 -x {0.1 1073741824.0 -1 ------- null}
+ -t 0.13 -s 0 -d 2 -p cbr -e 210 -c 1 -i 8 -a 1 -x {0.1 1073741824.0 8 ------- null}
- -t 0.13 -s 0 -d 2 -p cbr -e 210 -c 1 -i 8 -a 1 -x {0.1 1073741824.0 8 ------- null}
h -t 0.13 -s 0 -d 2 -p cbr -e 210 -c 1 -i 8 -a 1 -x {0.1 1073741824.0 -1 ------- null}
+ -t 0.13 -s 0 -d 3 -p cbr -e 210 -c 1 -i 8 -a 1 -x {0.1 1073741824.0 8 ------- null}
r -t 0.13334 -s 0 -d 1 -p cbr -e 210 -c 1 -i 6 -a 1 -x {0.1 1073741824.0 6 ------- null}
r -t 0.13334 -s 0 -d 2 -p cbr -e 210 -c 1 -i 6 -a 1 -x {0.1 1073741824.0 6 ------- null}
- -t 0.1336 -s 0 -d 4 -p cbr -e 210 -c 1 -i 6 -a 1 -x {0.1 1073741824.0 6 ------- null}
h -t 0.1336 -s 0 -d 4 -p cbr -e 210 -c 1 -i 6 -a 1 -x {0.1 1073741824.0 -1 ------- null}
- -t 0.1336 -s 0 -d 3 -p cbr -e 210 -c 1 -i 6 -a 1 -x {0.1 1073741824.0 6 ------- null}
h -t 0.1336 -s 0 -d 3 -p cbr -e 210 -c 1 -i 6 -a 1 -x {0.1 1073741824.0 -1 ------- null}
+ -t 0.13375 -s 0 -d 4 -p cbr -e 210 -c 1 -i 9 -a 1 -x {0.1 1073741824.0 9 ------- null}
+ -t 0.13375 -s 0 -d 1 -p cbr -e 210 -c 1 -i 9 -a 1 -x {0.1 1073741824.0 9 ------- null}
- -t 0.13375 -s 0 -d 1 -p cbr -e 210 -c 1 -i 9 -a 1 -x {0.1 1073741824.0 9 ------- null}
h -t 0.13375 -s 0 -d 1 -p cbr -e 210 -c 1 -i 9 -a 1 -x {0.1 1073741824.0 -1 ------- null}
+ -t 0.13375 -s 0 -d 2 -p cbr -e 210 -c 1 -i 9 -a 1 -x {0.1 1073741824.0 9 ------- null}
- -t 0.13375 -s 0 -d 2 -p cbr -e 210 -c 1 -i 9 -a 1 -x {0.1 1073741824.0 9 ------- null}
h -t 0.13375 -s 0 -d 2 -p cbr -e 210 -c 1 -i 9 -a 1 -x {0.1 1073741824.0 -1 ------- null}
+ -t 0.13375 -s 0 -d 3 -p cbr -e 210 -c 1 -i 9 -a 1 -x {0.1 1073741824.0 9 ------- null}
r -t 0.13709 -s 0 -d 1 -p cbr -e 210 -c 1 -i 7 -a 1 -x {0.1 1073741824.0 7 ------- null}
r -t 0.13709 -s 0 -d 2 -p cbr -e 210 -c 1 -i 7 -a 1 -x {0.1 1073741824.0 7 ------- null}
+ -t 0.1375 -s 0 -d 4 -p cbr -e 210 -c 1 -i 10 -a 1 -x {0.1 1073741824.0 10 ------- null}
+ -t 0.1375 -s 0 -d 1 -p cbr -e 210 -c 1 -i 10 -a 1 -x {0.1 1073741824.0 10 ------- null}
- -t 0.1375 -s 0 -d 1 -p cbr -e 210 -c 1 -i 10 -a 1 -x {0.1 1073741824.0 10 ------- null}
h -t 0.1375 -s 0 -d 1 -p cbr -e 210 -c 1 -i 10 -a 1 -x {0.1 1073741824.0 -1 ------- null}
+ -t 0.1375 -s 0 -d 2 -p cbr -e 210 -c 1 -i 10 -a 1 -x {0.1 1073741824.0 10 ------- null}
- -t 0.1375 -s 0 -d 2 -p cbr -e 210 -c 1 -i 10 -a 1 -x {0.1 1073741824.0 10 ------- null}
h -t 0.1375 -s 0 -d 2 -p cbr -e 210 -c 1 -i 10 -a 1 -x {0.1 1073741824.0 -1 ------- null}
+ -t 0.1375 -s 0 -d 3 -p cbr -e 210 -c 1 -i 10 -a 1 -x {0.1 1073741824.0 10 ------- null}
- -t 0.1392 -s 0 -d 4 -p cbr -e 210 -c 1 -i 7 -a 1 -x {0.1 1073741824.0 7 ------- null}
h -t 0.1392 -s 0 -d 4 -p cbr -e 210 -c 1 -i 7 -a 1 -x {0.1 1073741824.0 -1 ------- null}
- -t 0.1392 -s 0 -d 3 -p cbr -e 210 -c 1 -i 7 -a 1 -x {0.1 1073741824.0 7 ------- null}
h -t 0.1392 -s 0 -d 3 -p cbr -e 210 -c 1 -i 7 -a 1 -x {0.1 1073741824.0 -1 ------- null}
r -t 0.14084 -s 0 -d 1 -p cbr -e 210 -c 1 -i 8 -a 1 -x {0.1 1073741824.0 8 ------- null}
r -t 0.14084 -s 0 -d 2 -p cbr -e 210 -c 1 -i 8 -a 1 -x {0.1 1073741824.0 8 ------- null}
+ -t 0.14125 -s 0 -d 4 -p cbr -e 210 -c 1 -i 11 -a 1 -x {0.1 1073741824.0 11 ------- null}
+ -t 0.14125 -s 0 -d 1 -p cbr -e 210 -c 1 -i 11 -a 1 -x {0.1 1073741824.0 11 ------- null}
- -t 0.14125 -s 0 -d 1 -p cbr -e 210 -c 1 -i 11 -a 1 -x {0.1 1073741824.0 11 ------- null}
h -t 0.14125 -s 0 -d 1 -p cbr -e 210 -c 1 -i 11 -a 1 -x {0.1 1073741824.0 -1 ------- null}
+ -t 0.14125 -s 0 -d 2 -p cbr -e 210 -c 1 -i 11 -a 1 -x {0.1 1073741824.0 11 ------- null}
- -t 0.14125 -s 0 -d 2 -p cbr -e 210 -c 1 -i 11 -a 1 -x {0.1 1073741824.0 11 ------- null}
h -t 0.14125 -s 0 -d 2 -p cbr -e 210 -c 1 -i 11 -a 1 -x {0.1 1073741824.0 -1 ------- null}
+ -t 0.14125 -s 0 -d 3 -p cbr -e 210 -c 1 -i 11 -a 1 -x {0.1 1073741824.0 11 ------- null}
r -t 0.14459 -s 0 -d 1 -p cbr -e 210 -c 1 -i 9 -a 1 -x {0.1 1073741824.0 9 ------- null}
r -t 0.14459 -s 0 -d 2 -p cbr -e 210 -c 1 -i 9 -a 1 -x {0.1 1073741824.0 9 ------- null}
- -t 0.1448 -s 0 -d 4 -p cbr -e 210 -c 1 -i 8 -a 1 -x {0.1 1073741824.0 8 ------- null}
h -t 0.1448 -s 0 -d 4 -p cbr -e 210 -c 1 -i 8 -a 1 -x {0.1 1073741824.0 -1 ------- null}
- -t 0.1448 -s 0 -d 3 -p cbr -e 210 -c 1 -i 8 -a 1 -x {0.1 1073741824.0 8 ------- null}
h -t 0.1448 -s 0 -d 3 -p cbr -e 210 -c 1 -i 8 -a 1 -x {0.1 1073741824.0 -1 ------- null}
+ -t 0.145 -s 0 -d 4 -p cbr -e 210 -c 1 -i 12 -a 1 -x {0.1 1073741824.0 12 ------- null}
+ -t 0.145 -s 0 -d 1 -p cbr -e 210 -c 1 -i 12 -a 1 -x {0.1 1073741824.0 12 ------- null}
- -t 0.145 -s 0 -d 1 -p cbr -e 210 -c 1 -i 12 -a 1 -x {0.1 1073741824.0 12 ------- null}
h -t 0.145 -s 0 -d 1 -p cbr -e 210 -c 1 -i 12 -a 1 -x {0.1 1073741824.0 -1 ------- null}
+ -t 0.145 -s 0 -d 2 -p cbr -e 210 -c 1 -i 12 -a 1 -x {0.1 1073741824.0 12 ------- null}
- -t 0.145 -s 0 -d 2 -p cbr -e 210 -c 1 -i 12 -a 1 -x {0.1 1073741824.0 12 ------- null}
h -t 0.145 -s 0 -d 2 -p cbr -e 210 -c 1 -i 12 -a 1 -x {0.1 1073741824.0 -1 ------- null}
+ -t 0.145 -s 0 -d 3 -p cbr -e 210 -c 1 -i 12 -a 1 -x {0.1 1073741824.0 12 ------- null}
r -t 0.14834 -s 0 -d 1 -p cbr -e 210 -c 1 -i 10 -a 1 -x {0.1 1073741824.0 10 ------- null}
r -t 0.14834 -s 0 -d 2 -p cbr -e 210 -c 1 -i 10 -a 1 -x {0.1 1073741824.0 10 ------- null}
+ -t 0.14875 -s 0 -d 4 -p cbr -e 210 -c 1 -i 13 -a 1 -x {0.1 1073741824.0 13 ------- null}
+ -t 0.14875 -s 0 -d 1 -p cbr -e 210 -c 1 -i 13 -a 1 -x {0.1 1073741824.0 13 ------- null}
- -t 0.14875 -s 0 -d 1 -p cbr -e 210 -c 1 -i 13 -a 1 -x {0.1 1073741824.0 13 ------- null}
h -t 0.14875 -s 0 -d 1 -p cbr -e 210 -c 1 -i 13 -a 1 -x {0.1 1073741824.0 -1 ------- null}
+ -t 0.14875 -s 0 -d 2 -p cbr -e 210 -c 1 -i 13 -a 1 -x {0.1 1073741824.0 13 ------- null}
- -t 0.14875 -s 0 -d 2 -p cbr -e 210 -c 1 -i 13 -a 1 -x {0.1 1073741824.0 13 ------- null}
h -t 0.14875 -s 0 -d 2 -p cbr -e 210 -c 1 -i 13 -a 1 -x {0.1 1073741824.0 -1 ------- null}
+ -t 0.14875 -s 0 -d 3 -p cbr -e 210 -c 1 -i 13 -a 1 -x {0.1 1073741824.0 13 ------- null}
- -t 0.1504 -s 0 -d 4 -p cbr -e 210 -c 1 -i 9 -a 1 -x {0.1 1073741824.0 9 ------- null}
h -t 0.1504 -s 0 -d 4 -p cbr -e 210 -c 1 -i 9 -a 1 -x {0.1 1073741824.0 -1 ------- null}
- -t 0.1504 -s 0 -d 3 -p cbr -e 210 -c 1 -i 9 -a 1 -x {0.1 1073741824.0 9 ------- null}
h -t 0.1504 -s 0 -d 3 -p cbr -e 210 -c 1 -i 9 -a 1 -x {0.1 1073741824.0 -1 ------- null}
r -t 0.15209 -s 0 -d 1 -p cbr -e 210 -c 1 -i 11 -a 1 -x {0.1 1073741824.0 11 ------- null}
r -t 0.15209 -s 0 -d 2 -p cbr -e 210 -c 1 -i 11 -a 1 -x {0.1 1073741824.0 11 ------- null}
+ -t 0.1525 -s 0 -d 4 -p cbr -e 210 -c 1 -i 14 -a 1 -x {0.1 1073741824.0 14 ------- null}
+ -t 0.1525 -s 0 -d 1 -p cbr -e 210 -c 1 -i 14 -a 1 -x {0.1 1073741824.0 14 ------- null}
- -t 0.1525 -s 0 -d 1 -p cbr -e 210 -c 1 -i 14 -a 1 -x {0.1 1073741824.0 14 ------- null}
h -t 0.1525 -s 0 -d 1 -p cbr -e 210 -c 1 -i 14 -a 1 -x {0.1 1073741824.0 -1 ------- null}
+ -t 0.1525 -s 0 -d 2 -p cbr -e 210 -c 1 -i 14 -a 1 -x {0.1 1073741824.0 14 ------- null}
- -t 0.1525 -s 0 -d 2 -p cbr -e 210 -c 1 -i 14 -a 1 -x {0.1 1073741824.0 14 ------- null}
h -t 0.1525 -s 0 -d 2 -p cbr -e 210 -c 1 -i 14 -a 1 -x {0.1 1073741824.0 -1 ------- null}
+ -t 0.1525 -s 0 -d 3 -p cbr -e 210 -c 1 -i 14 -a 1 -x {0.1 1073741824.0 14 ------- null}
r -t 0.15584 -s 0 -d 1 -p cbr -e 210 -c 1 -i 12 -a 1 -x {0.1 1073741824.0 12 ------- null}
r -t 0.15584 -s 0 -d 2 -p cbr -e 210 -c 1 -i 12 -a 1 -x {0.1 1073741824.0 12 ------- null}
- -t 0.156 -s 0 -d 4 -p cbr -e 210 -c 1 -i 10 -a 1 -x {0.1 1073741824.0 10 ------- null}
h -t 0.156 -s 0 -d 4 -p cbr -e 210 -c 1 -i 10 -a 1 -x {0.1 1073741824.0 -1 ------- null}
- -t 0.156 -s 0 -d 3 -p cbr -e 210 -c 1 -i 10 -a 1 -x {0.1 1073741824.0 10 ------- null}
h -t 0.156 -s 0 -d 3 -p cbr -e 210 -c 1 -i 10 -a 1 -x {0.1 1073741824.0 -1 ------- null}
+ -t 0.15625 -s 0 -d 4 -p cbr -e 210 -c 1 -i 15 -a 1 -x {0.1 1073741824.0 15 ------- null}
+ -t 0.15625 -s 0 -d 1 -p cbr -e 210 -c 1 -i 15 -a 1 -x {0.1 1073741824.0 15 ------- null}
- -t 0.15625 -s 0 -d 1 -p cbr -e 210 -c 1 -i 15 -a 1 -x {0.1 1073741824.0 15 ------- null}
h -t 0.15625 -s 0 -d 1 -p cbr -e 210 -c 1 -i 15 -a 1 -x {0.1 1073741824.0 -1 ------- null}
+ -t 0.15625 -s 0 -d 2 -p cbr -e 210 -c 1 -i 15 -a 1 -x {0.1 1073741824.0 15 ------- null}
- -t 0.15625 -s 0 -d 2 -p cbr -e 210 -c 1 -i 15 -a 1 -x {0.1 1073741824.0 15 ------- null}
h -t 0.15625 -s 0 -d 2 -p cbr -e 210 -c 1 -i 15 -a 1 -x {0.1 1073741824.0 -1 ------- null}
+ -t 0.15625 -s 0 -d 3 -p cbr -e 210 -c 1 -i 15 -a 1 -x {0.1 1073741824.0 15 ------- null}
r -t 0.15959 -s 0 -d 1 -p cbr -e 210 -c 1 -i 13 -a 1 -x {0.1 1073741824.0 13 ------- null}
r -t 0.15959 -s 0 -d 2 -p cbr -e 210 -c 1 -i 13 -a 1 -x {0.1 1073741824.0 13 ------- null}
+ -t 0.16 -s 0 -d 4 -p cbr -e 210 -c 1 -i 16 -a 1 -x {0.1 1073741824.0 16 ------- null}
+ -t 0.16 -s 0 -d 1 -p cbr -e 210 -c 1 -i 16 -a 1 -x {0.1 1073741824.0 16 ------- null}
- -t 0.16 -s 0 -d 1 -p cbr -e 210 -c 1 -i 16 -a 1 -x {0.1 1073741824.0 16 ------- null}
h -t 0.16 -s 0 -d 1 -p cbr -e 210 -c 1 -i 16 -a 1 -x {0.1 1073741824.0 -1 ------- null}
+ -t 0.16 -s 0 -d 2 -p cbr -e 210 -c 1 -i 16 -a 1 -x {0.1 1073741824.0 16 ------- null}
- -t 0.16 -s 0 -d 2 -p cbr -e 210 -c 1 -i 16 -a 1 -x {0.1 1073741824.0 16 ------- null}
h -t 0.16 -s 0 -d 2 -p cbr -e 210 -c 1 -i 16 -a 1 -x {0.1 1073741824.0 -1 ------- null}
+ -t 0.16 -s 0 -d 3 -p cbr -e 210 -c 1 -i 16 -a 1 -x {0.1 1073741824.0 16 ------- null}
- -t 0.1616 -s 0 -d 4 -p cbr -e 210 -c 1 -i 11 -a 1 -x {0.1 1073741824.0 11 ------- null}
h -t 0.1616 -s 0 -d 4 -p cbr -e 210 -c 1 -i 11 -a 1 -x {0.1 1073741824.0 -1 ------- null}
- -t 0.1616 -s 0 -d 3 -p cbr -e 210 -c 1 -i 11 -a 1 -x {0.1 1073741824.0 11 ------- null}
h -t 0.1616 -s 0 -d 3 -p cbr -e 210 -c 1 -i 11 -a 1 -x {0.1 1073741824.0 -1 ------- null}
r -t 0.16334 -s 0 -d 1 -p cbr -e 210 -c 1 -i 14 -a 1 -x {0.1 1073741824.0 14 ------- null}
r -t 0.16334 -s 0 -d 2 -p cbr -e 210 -c 1 -i 14 -a 1 -x {0.1 1073741824.0 14 ------- null}
+ -t 0.16375 -s 0 -d 4 -p cbr -e 210 -c 1 -i 17 -a 1 -x {0.1 1073741824.0 17 ------- null}
+ -t 0.16375 -s 0 -d 1 -p cbr -e 210 -c 1 -i 17 -a 1 -x {0.1 1073741824.0 17 ------- null}
- -t 0.16375 -s 0 -d 1 -p cbr -e 210 -c 1 -i 17 -a 1 -x {0.1 1073741824.0 17 ------- null}
h -t 0.16375 -s 0 -d 1 -p cbr -e 210 -c 1 -i 17 -a 1 -x {0.1 1073741824.0 -1 ------- null}
+ -t 0.16375 -s 0 -d 2 -p cbr -e 210 -c 1 -i 17 -a 1 -x {0.1 1073741824.0 17 ------- null}
- -t 0.16375 -s 0 -d 2 -p cbr -e 210 -c 1 -i 17 -a 1 -x {0.1 1073741824.0 17 ------- null}
h -t 0.16375 -s 0 -d 2 -p cbr -e 210 -c 1 -i 17 -a 1 -x {0.1 1073741824.0 -1 ------- null}
+ -t 0.16375 -s 0 -d 3 -p cbr -e 210 -c 1 -i 17 -a 1 -x {0.1 1073741824.0 17 ------- null}
r -t 0.16709 -s 0 -d 1 -p cbr -e 210 -c 1 -i 15 -a 1 -x {0.1 1073741824.0 15 ------- null}
r -t 0.16709 -s 0 -d 2 -p cbr -e 210 -c 1 -i 15 -a 1 -x {0.1 1073741824.0 15 ------- null}
- -t 0.1672 -s 0 -d 4 -p cbr -e 210 -c 1 -i 12 -a 1 -x {0.1 1073741824.0 12 ------- null}
h -t 0.1672 -s 0 -d 4 -p cbr -e 210 -c 1 -i 12 -a 1 -x {0.1 1073741824.0 -1 ------- null}
- -t 0.1672 -s 0 -d 3 -p cbr -e 210 -c 1 -i 12 -a 1 -x {0.1 1073741824.0 12 ------- null}
h -t 0.1672 -s 0 -d 3 -p cbr -e 210 -c 1 -i 12 -a 1 -x {0.1 1073741824.0 -1 ------- null}
+ -t 0.1675 -s 0 -d 4 -p cbr -e 210 -c 1 -i 18 -a 1 -x {0.1 1073741824.0 18 ------- null}
+ -t 0.1675 -s 0 -d 1 -p cbr -e 210 -c 1 -i 18 -a 1 -x {0.1 1073741824.0 18 ------- null}
- -t 0.1675 -s 0 -d 1 -p cbr -e 210 -c 1 -i 18 -a 1 -x {0.1 1073741824.0 18 ------- null}
h -t 0.1675 -s 0 -d 1 -p cbr -e 210 -c 1 -i 18 -a 1 -x {0.1 1073741824.0 -1 ------- null}
+ -t 0.1675 -s 0 -d 2 -p cbr -e 210 -c 1 -i 18 -a 1 -x {0.1 1073741824.0 18 ------- null}
- -t 0.1675 -s 0 -d 2 -p cbr -e 210 -c 1 -i 18 -a 1 -x {0.1 1073741824.0 18 ------- null}
h -t 0.1675 -s 0 -d 2 -p cbr -e 210 -c 1 -i 18 -a 1 -x {0.1 1073741824.0 -1 ------- null}
+ -t 0.1675 -s 0 -d 3 -p cbr -e 210 -c 1 -i 18 -a 1 -x {0.1 1073741824.0 18 ------- null}
r -t 0.17084 -s 0 -d 1 -p cbr -e 210 -c 1 -i 16 -a 1 -x {0.1 1073741824.0 16 ------- null}
r -t 0.17084 -s 0 -d 2 -p cbr -e 210 -c 1 -i 16 -a 1 -x {0.1 1073741824.0 16 ------- null}
+ -t 0.17125 -s 0 -d 4 -p cbr -e 210 -c 1 -i 19 -a 1 -x {0.1 1073741824.0 19 ------- null}
+ -t 0.17125 -s 0 -d 1 -p cbr -e 210 -c 1 -i 19 -a 1 -x {0.1 1073741824.0 19 ------- null}
- -t 0.17125 -s 0 -d 1 -p cbr -e 210 -c 1 -i 19 -a 1 -x {0.1 1073741824.0 19 ------- null}
h -t 0.17125 -s 0 -d 1 -p cbr -e 210 -c 1 -i 19 -a 1 -x {0.1 1073741824.0 -1 ------- null}
+ -t 0.17125 -s 0 -d 2 -p cbr -e 210 -c 1 -i 19 -a 1 -x {0.1 1073741824.0 19 ------- null}
- -t 0.17125 -s 0 -d 2 -p cbr -e 210 -c 1 -i 19 -a 1 -x {0.1 1073741824.0 19 ------- null}
h -t 0.17125 -s 0 -d 2 -p cbr -e 210 -c 1 -i 19 -a 1 -x {0.1 1073741824.0 -1 ------- null}
+ -t 0.17125 -s 0 -d 3 -p cbr -e 210 -c 1 -i 19 -a 1 -x {0.1 1073741824.0 19 ------- null}
- -t 0.1728 -s 0 -d 4 -p cbr -e 210 -c 1 -i 13 -a 1 -x {0.1 1073741824.0 13 ------- null}
h -t 0.1728 -s 0 -d 4 -p cbr -e 210 -c 1 -i 13 -a 1 -x {0.1 1073741824.0 -1 ------- null}
- -t 0.1728 -s 0 -d 3 -p cbr -e 210 -c 1 -i 13 -a 1 -x {0.1 1073741824.0 13 ------- null}
h -t 0.1728 -s 0 -d 3 -p cbr -e 210 -c 1 -i 13 -a 1 -x {0.1 1073741824.0 -1 ------- null}
r -t 0.17459 -s 0 -d 1 -p cbr -e 210 -c 1 -i 17 -a 1 -x {0.1 1073741824.0 17 ------- null}
r -t 0.17459 -s 0 -d 2 -p cbr -e 210 -c 1 -i 17 -a 1 -x {0.1 1073741824.0 17 ------- null}
+ -t 0.175 -s 0 -d 4 -p cbr -e 210 -c 1 -i 20 -a 1 -x {0.1 1073741824.0 20 ------- null}
+ -t 0.175 -s 0 -d 1 -p cbr -e 210 -c 1 -i 20 -a 1 -x {0.1 1073741824.0 20 ------- null}
- -t 0.175 -s 0 -d 1 -p cbr -e 210 -c 1 -i 20 -a 1 -x {0.1 1073741824.0 20 ------- null}
h -t 0.175 -s 0 -d 1 -p cbr -e 210 -c 1 -i 20 -a 1 -x {0.1 1073741824.0 -1 ------- null}
+ -t 0.175 -s 0 -d 2 -p cbr -e 210 -c 1 -i 20 -a 1 -x {0.1 1073741824.0 20 ------- null}
- -t 0.175 -s 0 -d 2 -p cbr -e 210 -c 1 -i 20 -a 1 -x {0.1 1073741824.0 20 ------- null}
h -t 0.175 -s 0 -d 2 -p cbr -e 210 -c 1 -i 20 -a 1 -x {0.1 1073741824.0 -1 ------- null}
+ -t 0.175 -s 0 -d 3 -p cbr -e 210 -c 1 -i 20 -a 1 -x {0.1 1073741824.0 20 ------- null}
r -t 0.17834 -s 0 -d 1 -p cbr -e 210 -c 1 -i 18 -a 1 -x {0.1 1073741824.0 18 ------- null}
r -t 0.17834 -s 0 -d 2 -p cbr -e 210 -c 1 -i 18 -a 1 -x {0.1 1073741824.0 18 ------- null}
- -t 0.1784 -s 0 -d 4 -p cbr -e 210 -c 1 -i 14 -a 1 -x {0.1 1073741824.0 14 ------- null}
h -t 0.1784 -s 0 -d 4 -p cbr -e 210 -c 1 -i 14 -a 1 -x {0.1 1073741824.0 -1 ------- null}
- -t 0.1784 -s 0 -d 3 -p cbr -e 210 -c 1 -i 14 -a 1 -x {0.1 1073741824.0 14 ------- null}
h -t 0.1784 -s 0 -d 3 -p cbr -e 210 -c 1 -i 14 -a 1 -x {0.1 1073741824.0 -1 ------- null}
+ -t 0.17875 -s 0 -d 4 -p cbr -e 210 -c 1 -i 21 -a 1 -x {0.1 1073741824.0 21 ------- null}
+ -t 0.17875 -s 0 -d 1 -p cbr -e 210 -c 1 -i 21 -a 1 -x {0.1 1073741824.0 21 ------- null}
- -t 0.17875 -s 0 -d 1 -p cbr -e 210 -c 1 -i 21 -a 1 -x {0.1 1073741824.0 21 ------- null}
h -t 0.17875 -s 0 -d 1 -p cbr -e 210 -c 1 -i 21 -a 1 -x {0.1 1073741824.0 -1 ------- null}
+ -t 0.17875 -s 0 -d 2 -p cbr -e 210 -c 1 -i 21 -a 1 -x {0.1 1073741824.0 21 ------- null}
- -t 0.17875 -s 0 -d 2 -p cbr -e 210 -c 1 -i 21 -a 1 -x {0.1 1073741824.0 21 ------- null}
h -t 0.17875 -s 0 -d 2 -p cbr -e 210 -c 1 -i 21 -a 1 -x {0.1 1073741824.0 -1 ------- null}
+ -t 0.17875 -s 0 -d 3 -p cbr -e 210 -c 1 -i 21 -a 1 -x {0.1 1073741824.0 21 ------- null}
r -t 0.18209 -s 0 -d 1 -p cbr -e 210 -c 1 -i 19 -a 1 -x {0.1 1073741824.0 19 ------- null}
r -t 0.18209 -s 0 -d 2 -p cbr -e 210 -c 1 -i 19 -a 1 -x {0.1 1073741824.0 19 ------- null}
+ -t 0.1825 -s 0 -d 4 -p cbr -e 210 -c 1 -i 22 -a 1 -x {0.1 1073741824.0 22 ------- null}
+ -t 0.1825 -s 0 -d 1 -p cbr -e 210 -c 1 -i 22 -a 1 -x {0.1 1073741824.0 22 ------- null}
- -t 0.1825 -s 0 -d 1 -p cbr -e 210 -c 1 -i 22 -a 1 -x {0.1 1073741824.0 22 ------- null}
h -t 0.1825 -s 0 -d 1 -p cbr -e 210 -c 1 -i 22 -a 1 -x {0.1 1073741824.0 -1 ------- null}
+ -t 0.1825 -s 0 -d 2 -p cbr -e 210 -c 1 -i 22 -a 1 -x {0.1 1073741824.0 22 ------- null}
- -t 0.1825 -s 0 -d 2 -p cbr -e 210 -c 1 -i 22 -a 1 -x {0.1 1073741824.0 22 ------- null}
h -t 0.1825 -s 0 -d 2 -p cbr -e 210 -c 1 -i 22 -a 1 -x {0.1 1073741824.0 -1 ------- null}
+ -t 0.1825 -s 0 -d 3 -p cbr -e 210 -c 1 -i 22 -a 1 -x {0.1 1073741824.0 22 ------- null}
- -t 0.184 -s 0 -d 4 -p cbr -e 210 -c 1 -i 15 -a 1 -x {0.1 1073741824.0 15 ------- null}
h -t 0.184 -s 0 -d 4 -p cbr -e 210 -c 1 -i 15 -a 1 -x {0.1 1073741824.0 -1 ------- null}
- -t 0.184 -s 0 -d 3 -p cbr -e 210 -c 1 -i 15 -a 1 -x {0.1 1073741824.0 15 ------- null}
h -t 0.184 -s 0 -d 3 -p cbr -e 210 -c 1 -i 15 -a 1 -x {0.1 1073741824.0 -1 ------- null}
r -t 0.18584 -s 0 -d 1 -p cbr -e 210 -c 1 -i 20 -a 1 -x {0.1 1073741824.0 20 ------- null}
r -t 0.18584 -s 0 -d 2 -p cbr -e 210 -c 1 -i 20 -a 1 -x {0.1 1073741824.0 20 ------- null}
+ -t 0.18625 -s 0 -d 4 -p cbr -e 210 -c 1 -i 23 -a 1 -x {0.1 1073741824.0 23 ------- null}
+ -t 0.18625 -s 0 -d 1 -p cbr -e 210 -c 1 -i 23 -a 1 -x {0.1 1073741824.0 23 ------- null}
- -t 0.18625 -s 0 -d 1 -p cbr -e 210 -c 1 -i 23 -a 1 -x {0.1 1073741824.0 23 ------- null}
h -t 0.18625 -s 0 -d 1 -p cbr -e 210 -c 1 -i 23 -a 1 -x {0.1 1073741824.0 -1 ------- null}
+ -t 0.18625 -s 0 -d 2 -p cbr -e 210 -c 1 -i 23 -a 1 -x {0.1 1073741824.0 23 ------- null}
- -t 0.18625 -s 0 -d 2 -p cbr -e 210 -c 1 -i 23 -a 1 -x {0.1 1073741824.0 23 ------- null}
h -t 0.18625 -s 0 -d 2 -p cbr -e 210 -c 1 -i 23 -a 1 -x {0.1 1073741824.0 -1 ------- null}
+ -t 0.18625 -s 0 -d 3 -p cbr -e 210 -c 1 -i 23 -a 1 -x {0.1 1073741824.0 23 ------- null}
r -t 0.18959 -s 0 -d 1 -p cbr -e 210 -c 1 -i 21 -a 1 -x {0.1 1073741824.0 21 ------- null}
r -t 0.18959 -s 0 -d 2 -p cbr -e 210 -c 1 -i 21 -a 1 -x {0.1 1073741824.0 21 ------- null}
- -t 0.1896 -s 0 -d 4 -p cbr -e 210 -c 1 -i 16 -a 1 -x {0.1 1073741824.0 16 ------- null}
h -t 0.1896 -s 0 -d 4 -p cbr -e 210 -c 1 -i 16 -a 1 -x {0.1 1073741824.0 -1 ------- null}
- -t 0.1896 -s 0 -d 3 -p cbr -e 210 -c 1 -i 16 -a 1 -x {0.1 1073741824.0 16 ------- null}
h -t 0.1896 -s 0 -d 3 -p cbr -e 210 -c 1 -i 16 -a 1 -x {0.1 1073741824.0 -1 ------- null}
+ -t 0.19 -s 0 -d 4 -p cbr -e 210 -c 1 -i 24 -a 1 -x {0.1 1073741824.0 24 ------- null}
+ -t 0.19 -s 0 -d 1 -p cbr -e 210 -c 1 -i 24 -a 1 -x {0.1 1073741824.0 24 ------- null}
- -t 0.19 -s 0 -d 1 -p cbr -e 210 -c 1 -i 24 -a 1 -x {0.1 1073741824.0 24 ------- null}
h -t 0.19 -s 0 -d 1 -p cbr -e 210 -c 1 -i 24 -a 1 -x {0.1 1073741824.0 -1 ------- null}
+ -t 0.19 -s 0 -d 2 -p cbr -e 210 -c 1 -i 24 -a 1 -x {0.1 1073741824.0 24 ------- null}
- -t 0.19 -s 0 -d 2 -p cbr -e 210 -c 1 -i 24 -a 1 -x {0.1 1073741824.0 24 ------- null}
h -t 0.19 -s 0 -d 2 -p cbr -e 210 -c 1 -i 24 -a 1 -x {0.1 1073741824.0 -1 ------- null}
+ -t 0.19 -s 0 -d 3 -p cbr -e 210 -c 1 -i 24 -a 1 -x {0.1 1073741824.0 24 ------- null}
r -t 0.19334 -s 0 -d 1 -p cbr -e 210 -c 1 -i 22 -a 1 -x {0.1 1073741824.0 22 ------- null}
r -t 0.19334 -s 0 -d 2 -p cbr -e 210 -c 1 -i 22 -a 1 -x {0.1 1073741824.0 22 ------- null}
+ -t 0.19375 -s 0 -d 4 -p cbr -e 210 -c 1 -i 25 -a 1 -x {0.1 1073741824.0 25 ------- null}
+ -t 0.19375 -s 0 -d 1 -p cbr -e 210 -c 1 -i 25 -a 1 -x {0.1 1073741824.0 25 ------- null}
- -t 0.19375 -s 0 -d 1 -p cbr -e 210 -c 1 -i 25 -a 1 -x {0.1 1073741824.0 25 ------- null}
h -t 0.19375 -s 0 -d 1 -p cbr -e 210 -c 1 -i 25 -a 1 -x {0.1 1073741824.0 -1 ------- null}
+ -t 0.19375 -s 0 -d 2 -p cbr -e 210 -c 1 -i 25 -a 1 -x {0.1 1073741824.0 25 ------- null}
- -t 0.19375 -s 0 -d 2 -p cbr -e 210 -c 1 -i 25 -a 1 -x {0.1 1073741824.0 25 ------- null}
h -t 0.19375 -s 0 -d 2 -p cbr -e 210 -c 1 -i 25 -a 1 -x {0.1 1073741824.0 -1 ------- null}
+ -t 0.19375 -s 0 -d 3 -p cbr -e 210 -c 1 -i 25 -a 1 -x {0.1 1073741824.0 25 ------- null}
- -t 0.1952 -s 0 -d 4 -p cbr -e 210 -c 1 -i 17 -a 1 -x {0.1 1073741824.0 17 ------- null}
h -t 0.1952 -s 0 -d 4 -p cbr -e 210 -c 1 -i 17 -a 1 -x {0.1 1073741824.0 -1 ------- null}
- -t 0.1952 -s 0 -d 3 -p cbr -e 210 -c 1 -i 17 -a 1 -x {0.1 1073741824.0 17 ------- null}
h -t 0.1952 -s 0 -d 3 -p cbr -e 210 -c 1 -i 17 -a 1 -x {0.1 1073741824.0 -1 ------- null}