+ 0.1 1 2 cbr 512 ------- 1 1.0 5.0 0 0
- 0.1 1 2 cbr 512 ------- 1 1.0 5.0 0 0
r 0.112048 1 2 cbr 512 ------- 1 1.0 5.0 0 0
+ 0.112048 2 3 cbr 512 ------- 1 1.0 5.0 0 0
- 0.112048 2 3 cbr 512 ------- 1 1.0 5.0 0 0
+ 0.12048 1 2 cbr 512 ------- 1 1.0 5.0 1 1
- 0.12048 1 2 cbr 512 ------- 1 1.0 5.0 1 1
r 0.132528 1 2 cbr 512 ------- 1 1.0 5.0 1 1
+ 0.132528 2 3 cbr 512 ------- 1 1.0 5.0 1 1
- 0.132528 2 3 cbr 512 ------- 1 1.0 5.0 1 1
+ 0.14096 1 2 cbr 512 ------- 1 1.0 5.0 2 2
- 0.14096 1 2 cbr 512 ------- 1 1.0 5.0 2 2
r 0.153008 1 2 cbr 512 ------- 1 1.0 5.0 2 2
+ 0.153008 2 3 cbr 512 ------- 1 1.0 5.0 2 2
- 0.153008 2 3 cbr 512 ------- 1 1.0 5.0 2 2
+ 0.16144 1 2 cbr 512 ------- 1 1.0 5.0 3 3
- 0.16144 1 2 cbr 512 ------- 1 1.0 5.0 3 3
r 0.173488 1 2 cbr 512 ------- 1 1.0 5.0 3 3
+ 0.173488 2 3 cbr 512 ------- 1 1.0 5.0 3 3
- 0.173488 2 3 cbr 512 ------- 1 1.0 5.0 3 3
+ 0.18192 1 2 cbr 512 ------- 1 1.0 5.0 4 4
- 0.18192 1 2 cbr 512 ------- 1 1.0 5.0 4 4
r 0.193968 1 2 cbr 512 ------- 1 1.0 5.0 4 4
+ 0.193968 2 3 cbr 512 ------- 1 1.0 5.0 4 4
- 0.193968 2 3 cbr 512 ------- 1 1.0 5.0 4 4
+ 0.2 0 2 tcp 40 ------- 2 0.0 4.0 0 5
- 0.2 0 2 tcp 40 ------- 2 0.0 4.0 0 5
+ 0.2024 1 2 cbr 512 ------- 1 1.0 5.0 5 6
- 0.2024 1 2 cbr 512 ------- 1 1.0 5.0 5 6
r 0.21016 0 2 tcp 40 ------- 2 0.0 4.0 0 5
+ 0.21016 2 3 tcp 40 ------- 2 0.0 4.0 0 5
- 0.21016 2 3 tcp 40 ------- 2 0.0 4.0 0 5
r 0.214448 1 2 cbr 512 ------- 1 1.0 5.0 5 6
+ 0.214448 2 3 cbr 512 ------- 1 1.0 5.0 5 6
- 0.214448 2 3 cbr 512 ------- 1 1.0 5.0 5 6
+ 0.22288 1 2 cbr 512 ------- 1 1.0 5.0 6 7
- 0.22288 1 2 cbr 512 ------- 1 1.0 5.0 6 7
r 0.225701 2 3 cbr 512 ------- 1 1.0 5.0 0 0
+ 0.225701 3 5 cbr 512 ------- 1 1.0 5.0 0 0
- 0.225701 3 5 cbr 512 ------- 1 1.0 5.0 0 0
r 0.234928 1 2 cbr 512 ------- 1 1.0 5.0 6 7
+ 0.234928 2 3 cbr 512 ------- 1 1.0 5.0 6 7
- 0.234928 2 3 cbr 512 ------- 1 1.0 5.0 6 7
+ 0.24336 1 2 cbr 512 ------- 1 1.0 5.0 7 8
- 0.24336 1 2 cbr 512 ------- 1 1.0 5.0 7 8
r 0.246181 2 3 cbr 512 ------- 1 1.0 5.0 1 1
+ 0.246181 3 5 cbr 512 ------- 1 1.0 5.0 1 1
- 0.246181 3 5 cbr 512 ------- 1 1.0 5.0 1 1
r 0.255408 1 2 cbr 512 ------- 1 1.0 5.0 7 8
+ 0.255408 2 3 cbr 512 ------- 1 1.0 5.0 7 8
- 0.255408 2 3 cbr 512 ------- 1 1.0 5.0 7 8
+ 0.26384 1 2 cbr 512 ------- 1 1.0 5.0 8 9
- 0.26384 1 2 cbr 512 ------- 1 1.0 5.0 8 9
r 0.263893 3 5 cbr 512 ------- 1 1.0 5.0 0 0
r 0.266661 2 3 cbr 512 ------- 1 1.0 5.0 2 2
+ 0.266661 3 5 cbr 512 ------- 1 1.0 5.0 2 2
- 0.266661 3 5 cbr 512 ------- 1 1.0 5.0 2 2
r 0.275888 1 2 cbr 512 ------- 1 1.0 5.0 8 9
+ 0.275888 2 3 cbr 512 ------- 1 1.0 5.0 8 9
- 0.275888 2 3 cbr 512 ------- 1 1.0 5.0 8 9
+ 0.28432 1 2 cbr 512 ------- 1 1.0 5.0 9 10
- 0.28432 1 2 cbr 512 ------- 1 1.0 5.0 9 10
r 0.284373 3 5 cbr 512 ------- 1 1.0 5.0 1 1
r 0.287141 2 3 cbr 512 ------- 1 1.0 5.0 3 3
+ 0.287141 3 5 cbr 512 ------- 1 1.0 5.0 3 3
- 0.287141 3 5 cbr 512 ------- 1 1.0 5.0 3 3
r 0.296368 1 2 cbr 512 ------- 1 1.0 5.0 9 10
+ 0.296368 2 3 cbr 512 ------- 1 1.0 5.0 9 10
- 0.296368 2 3 cbr 512 ------- 1 1.0 5.0 9 10
+ 0.3048 1 2 cbr 512 ------- 1 1.0 5.0 10 11
- 0.3048 1 2 cbr 512 ------- 1 1.0 5.0 10 11
r 0.304853 3 5 cbr 512 ------- 1 1.0 5.0 2 2
r 0.307621 2 3 cbr 512 ------- 1 1.0 5.0 4 4
+ 0.307621 3 5 cbr 512 ------- 1 1.0 5.0 4 4
- 0.307621 3 5 cbr 512 ------- 1 1.0 5.0 4 4
r 0.311227 2 3 tcp 40 ------- 2 0.0 4.0 0 5
+ 0.311227 3 4 tcp 40 ------- 2 0.0 4.0 0 5
- 0.311227 3 4 tcp 40 ------- 2 0.0 4.0 0 5
r 0.316848 1 2 cbr 512 ------- 1 1.0 5.0 10 11
+ 0.316848 2 3 cbr 512 ------- 1 1.0 5.0 10 11
- 0.316848 2 3 cbr 512 ------- 1 1.0 5.0 10 11
+ 0.32528 1 2 cbr 512 ------- 1 1.0 5.0 11 12
- 0.32528 1 2 cbr 512 ------- 1 1.0 5.0 11 12
r 0.325333 3 5 cbr 512 ------- 1 1.0 5.0 3 3
r 0.328101 2 3 cbr 512 ------- 1 1.0 5.0 5 6
+ 0.328101 3 5 cbr 512 ------- 1 1.0 5.0 5 6
- 0.328101 3 5 cbr 512 ------- 1 1.0 5.0 5 6
r 0.337328 1 2 cbr 512 ------- 1 1.0 5.0 11 12
+ 0.337328 2 3 cbr 512 ------- 1 1.0 5.0 11 12
- 0.337328 2 3 cbr 512 ------- 1 1.0 5.0 11 12
+ 0.34576 1 2 cbr 512 ------- 1 1.0 5.0 12 13
- 0.34576 1 2 cbr 512 ------- 1 1.0 5.0 12 13
r 0.345813 3 5 cbr 512 ------- 1 1.0 5.0 4 4
r 0.348581 2 3 cbr 512 ------- 1 1.0 5.0 6 7
+ 0.348581 3 5 cbr 512 ------- 1 1.0 5.0 6 7
- 0.348581 3 5 cbr 512 ------- 1 1.0 5.0 6 7
r 0.351867 3 4 tcp 40 ------- 2 0.0 4.0 0 5
+ 0.351867 4 3 ack 40 ------- 2 4.0 0.0 0 14
- 0.351867 4 3 ack 40 ------- 2 4.0 0.0 0 14
r 0.357808 1 2 cbr 512 ------- 1 1.0 5.0 12 13
+ 0.357808 2 3 cbr 512 ------- 1 1.0 5.0 12 13
- 0.357808 2 3 cbr 512 ------- 1 1.0 5.0 12 13
+ 0.36624 1 2 cbr 512 ------- 1 1.0 5.0 13 15
- 0.36624 1 2 cbr 512 ------- 1 1.0 5.0 13 15
r 0.366293 3 5 cbr 512 ------- 1 1.0 5.0 5 6
r 0.369061 2 3 cbr 512 ------- 1 1.0 5.0 7 8
+ 0.369061 3 5 cbr 512 ------- 1 1.0 5.0 7 8
- 0.369061 3 5 cbr 512 ------- 1 1.0 5.0 7 8
r 0.378288 1 2 cbr 512 ------- 1 1.0 5.0 13 15
+ 0.378288 2 3 cbr 512 ------- 1 1.0 5.0 13 15
- 0.378288 2 3 cbr 512 ------- 1 1.0 5.0 13 15
+ 0.38672 1 2 cbr 512 ------- 1 1.0 5.0 14 16
- 0.38672 1 2 cbr 512 ------- 1 1.0 5.0 14 16
r 0.386773 3 5 cbr 512 ------- 1 1.0 5.0 6 7
r 0.389541 2 3 cbr 512 ------- 1 1.0 5.0 8 9
+ 0.389541 3 5 cbr 512 ------- 1 1.0 5.0 8 9
- 0.389541 3 5 cbr 512 ------- 1 1.0 5.0 8 9
r 0.392507 4 3 ack 40 ------- 2 4.0 0.0 0 14
+ 0.392507 3 2 ack 40 ------- 2 4.0 0.0 0 14
- 0.392507 3 2 ack 40 ------- 2 4.0 0.0 0 14
r 0.398768 1 2 cbr 512 ------- 1 1.0 5.0 14 16
+ 0.398768 2 3 cbr 512 ------- 1 1.0 5.0 14 16
- 0.398768 2 3 cbr 512 ------- 1 1.0 5.0 14 16
+ 0.4072 1 2 cbr 512 ------- 1 1.0 5.0 15 17
- 0.4072 1 2 cbr 512 ------- 1 1.0 5.0 15 17
r 0.407253 3 5 cbr 512 ------- 1 1.0 5.0 7 8
r 0.410021 2 3 cbr 512 ------- 1 1.0 5.0 9 10
+ 0.410021 3 5 cbr 512 ------- 1 1.0 5.0 9 10
- 0.410021 3 5 cbr 512 ------- 1 1.0 5.0 9 10
r 0.419248 1 2 cbr 512 ------- 1 1.0 5.0 15 17
+ 0.419248 2 3 cbr 512 ------- 1 1.0 5.0 15 17
- 0.419248 2 3 cbr 512 ------- 1 1.0 5.0 15 17
+ 0.42768 1 2 cbr 512 ------- 1 1.0 5.0 16 18
- 0.42768 1 2 cbr 512 ------- 1 1.0 5.0 16 18
r 0.427733 3 5 cbr 512 ------- 1 1.0 5.0 8 9
r 0.430501 2 3 cbr 512 ------- 1 1.0 5.0 10 11
+ 0.430501 3 5 cbr 512 ------- 1 1.0 5.0 10 11
- 0.430501 3 5 cbr 512 ------- 1 1.0 5.0 10 11
r 0.439728 1 2 cbr 512 ------- 1 1.0 5.0 16 18
+ 0.439728 2 3 cbr 512 ------- 1 1.0 5.0 16 18
- 0.439728 2 3 cbr 512 ------- 1 1.0 5.0 16 18
+ 0.44816 1 2 cbr 512 ------- 1 1.0 5.0 17 19
- 0.44816 1 2 cbr 512 ------- 1 1.0 5.0 17 19
r 0.448213 3 5 cbr 512 ------- 1 1.0 5.0 9 10
r 0.450981 2 3 cbr 512 ------- 1 1.0 5.0 11 12
+ 0.450981 3 5 cbr 512 ------- 1 1.0 5.0 11 12
- 0.450981 3 5 cbr 512 ------- 1 1.0 5.0 11 12
r 0.460208 1 2 cbr 512 ------- 1 1.0 5.0 17 19
+ 0.460208 2 3 cbr 512 ------- 1 1.0 5.0 17 19
- 0.460208 2 3 cbr 512 ------- 1 1.0 5.0 17 19
+ 0.46864 1 2 cbr 512 ------- 1 1.0 5.0 18 20
- 0.46864 1 2 cbr 512 ------- 1 1.0 5.0 18 20
r 0.468693 3 5 cbr 512 ------- 1 1.0 5.0 10 11
r 0.471461 2 3 cbr 512 ------- 1 1.0 5.0 12 13
+ 0.471461 3 5 cbr 512 ------- 1 1.0 5.0 12 13
- 0.471461 3 5 cbr 512 ------- 1 1.0 5.0 12 13
r 0.480688 1 2 cbr 512 ------- 1 1.0 5.0 18 20
+ 0.480688 2 3 cbr 512 ------- 1 1.0 5.0 18 20
- 0.480688 2 3 cbr 512 ------- 1 1.0 5.0 18 20
+ 0.48912 1 2 cbr 512 ------- 1 1.0 5.0 19 21
- 0.48912 1 2 cbr 512 ------- 1 1.0 5.0 19 21
r 0.489173 3 5 cbr 512 ------- 1 1.0 5.0 11 12
r 0.491941 2 3 cbr 512 ------- 1 1.0 5.0 13 15
+ 0.491941 3 5 cbr 512 ------- 1 1.0 5.0 13 15
- 0.491941 3 5 cbr 512 ------- 1 1.0 5.0 13 15
r 0.493573 3 2 ack 40 ------- 2 4.0 0.0 0 14
+ 0.493573 2 0 ack 40 ------- 2 4.0 0.0 0 14
- 0.493573 2 0 ack 40 ------- 2 4.0 0.0 0 14
r 0.501168 1 2 cbr 512 ------- 1 1.0 5.0 19 21
+ 0.501168 2 3 cbr 512 ------- 1 1.0 5.0 19 21
- 0.501168 2 3 cbr 512 ------- 1 1.0 5.0 19 21
r 0.503733 2 0 ack 40 ------- 2 4.0 0.0 0 14
+ 0.503733 0 2 tcp 552 ------- 2 0.0 4.0 1 22
- 0.503733 0 2 tcp 552 ------- 2 0.0 4.0 1 22
+ 0.503733 0 2 tcp 552 ------- 2 0.0 4.0 2 23
- 0.505941 0 2 tcp 552 ------- 2 0.0 4.0 2 23
+ 0.5096 1 2 cbr 512 ------- 1 1.0 5.0 20 24
- 0.5096 1 2 cbr 512 ------- 1 1.0 5.0 20 24
r 0.509653 3 5 cbr 512 ------- 1 1.0 5.0 12 13
r 0.512421 2 3 cbr 512 ------- 1 1.0 5.0 14 16
+ 0.512421 3 5 cbr 512 ------- 1 1.0 5.0 14 16
- 0.512421 3 5 cbr 512 ------- 1 1.0 5.0 14 16
r 0.515941 0 2 tcp 552 ------- 2 0.0 4.0 1 22
+ 0.515941 2 3 tcp 552 ------- 2 0.0 4.0 1 22
- 0.515941 2 3 tcp 552 ------- 2 0.0 4.0 1 22
r 0.518149 0 2 tcp 552 ------- 2 0.0 4.0 2 23
+ 0.518149 2 3 tcp 552 ------- 2 0.0 4.0 2 23
r 0.521648 1 2 cbr 512 ------- 1 1.0 5.0 20 24
+ 0.521648 2 3 cbr 512 ------- 1 1.0 5.0 20 24
+ 0.53008 1 2 cbr 512 ------- 1 1.0 5.0 21 25
- 0.53008 1 2 cbr 512 ------- 1 1.0 5.0 21 25
r 0.530133 3 5 cbr 512 ------- 1 1.0 5.0 13 15
- 0.530661 2 3 tcp 552 ------- 2 0.0 4.0 2 23
r 0.532901 2 3 cbr 512 ------- 1 1.0 5.0 15 17
+ 0.532901 3 5 cbr 512 ------- 1 1.0 5.0 15 17
- 0.532901 3 5 cbr 512 ------- 1 1.0 5.0 15 17
r 0.542128 1 2 cbr 512 ------- 1 1.0 5.0 21 25
+ 0.542128 2 3 cbr 512 ------- 1 1.0 5.0 21 25
- 0.545381 2 3 cbr 512 ------- 1 1.0 5.0 20 24
+ 0.55056 1 2 cbr 512 ------- 1 1.0 5.0 22 26
- 0.55056 1 2 cbr 512 ------- 1 1.0 5.0 22 26
r 0.550613 3 5 cbr 512 ------- 1 1.0 5.0 14 16
r 0.553381 2 3 cbr 512 ------- 1 1.0 5.0 16 18
+ 0.553381 3 5 cbr 512 ------- 1 1.0 5.0 16 18
- 0.553381 3 5 cbr 512 ------- 1 1.0 5.0 16 18
- 0.559035 2 3 cbr 512 ------- 1 1.0 5.0 21 25
r 0.562608 1 2 cbr 512 ------- 1 1.0 5.0 22 26
+ 0.562608 2 3 cbr 512 ------- 1 1.0 5.0 22 26
+ 0.57104 1 2 cbr 512 ------- 1 1.0 5.0 23 27
- 0.57104 1 2 cbr 512 ------- 1 1.0 5.0 23 27
r 0.571093 3 5 cbr 512 ------- 1 1.0 5.0 15 17
- 0.572688 2 3 cbr 512 ------- 1 1.0 5.0 22 26
r 0.573861 2 3 cbr 512 ------- 1 1.0 5.0 17 19
+ 0.573861 3 5 cbr 512 ------- 1 1.0 5.0 17 19
- 0.573861 3 5 cbr 512 ------- 1 1.0 5.0 17 19
r 0.583088 1 2 cbr 512 ------- 1 1.0 5.0 23 27
+ 0.583088 2 3 cbr 512 ------- 1 1.0 5.0 23 27
- 0.586341 2 3 cbr 512 ------- 1 1.0 5.0 23 27
+ 0.59152 1 2 cbr 512 ------- 1 1.0 5.0 24 28
- 0.59152 1 2 cbr 512 ------- 1 1.0 5.0 24 28
r 0.591573 3 5 cbr 512 ------- 1 1.0 5.0 16 18
r 0.594341 2 3 cbr 512 ------- 1 1.0 5.0 18 20
+ 0.594341 3 5 cbr 512 ------- 1 1.0 5.0 18 20
- 0.594341 3 5 cbr 512 ------- 1 1.0 5.0 18 20
r 0.603568 1 2 cbr 512 ------- 1 1.0 5.0 24 28
+ 0.603568 2 3 cbr 512 ------- 1 1.0 5.0 24 28
- 0.603568 2 3 cbr 512 ------- 1 1.0 5.0 24 28
+ 0.612 1 2 cbr 512 ------- 1 1.0 5.0 25 29
- 0.612 1 2 cbr 512 ------- 1 1.0 5.0 25 29
r 0.612053 3 5 cbr 512 ------- 1 1.0 5.0 17 19
r 0.614821 2 3 cbr 512 ------- 1 1.0 5.0 19 21
+ 0.614821 3 5 cbr 512 ------- 1 1.0 5.0 19 21
- 0.614821 3 5 cbr 512 ------- 1 1.0 5.0 19 21
r 0.624048 1 2 cbr 512 ------- 1 1.0 5.0 25 29
+ 0.624048 2 3 cbr 512 ------- 1 1.0 5.0 25 29
- 0.624048 2 3 cbr 512 ------- 1 1.0 5.0 25 29
r 0.630661 2 3 tcp 552 ------- 2 0.0 4.0 1 22
+ 0.630661 3 4 tcp 552 ------- 2 0.0 4.0 1 22
- 0.630661 3 4 tcp 552 ------- 2 0.0 4.0 1 22
+ 0.63248 1 2 cbr 512 ------- 1 1.0 5.0 26 30
- 0.63248 1 2 cbr 512 ------- 1 1.0 5.0 26 30
r 0.632533 3 5 cbr 512 ------- 1 1.0 5.0 18 20
r 0.644528 1 2 cbr 512 ------- 1 1.0 5.0 26 30
+ 0.644528 2 3 cbr 512 ------- 1 1.0 5.0 26 30
- 0.644528 2 3 cbr 512 ------- 1 1.0 5.0 26 30
r 0.645381 2 3 tcp 552 ------- 2 0.0 4.0 2 23
+ 0.645381 3 4 tcp 552 ------- 2 0.0 4.0 2 23
- 0.645381 3 4 tcp 552 ------- 2 0.0 4.0 2 23
+ 0.65296 1 2 cbr 512 ------- 1 1.0 5.0 27 31
- 0.65296 1 2 cbr 512 ------- 1 1.0 5.0 27 31
r 0.653013 3 5 cbr 512 ------- 1 1.0 5.0 19 21
r 0.659035 2 3 cbr 512 ------- 1 1.0 5.0 20 24
+ 0.659035 3 5 cbr 512 ------- 1 1.0 5.0 20 24
- 0.659035 3 5 cbr 512 ------- 1 1.0 5.0 20 24
r 0.665008 1 2 cbr 512 ------- 1 1.0 5.0 27 31
+ 0.665008 2 3 cbr 512 ------- 1 1.0 5.0 27 31
- 0.665008 2 3 cbr 512 ------- 1 1.0 5.0 27 31
r 0.672688 2 3 cbr 512 ------- 1 1.0 5.0 21 25
+ 0.672688 3 5 cbr 512 ------- 1 1.0 5.0 21 25
- 0.672688 3 5 cbr 512 ------- 1 1.0 5.0 21 25
+ 0.67344 1 2 cbr 512 ------- 1 1.0 5.0 28 32
- 0.67344 1 2 cbr 512 ------- 1 1.0 5.0 28 32
r 0.679493 3 4 tcp 552 ------- 2 0.0 4.0 1 22
+ 0.679493 4 3 ack 40 ------- 2 4.0 0.0 1 33
- 0.679493 4 3 ack 40 ------- 2 4.0 0.0 1 33
r 0.685488 1 2 cbr 512 ------- 1 1.0 5.0 28 32
+ 0.685488 2 3 cbr 512 ------- 1 1.0 5.0 28 32
- 0.685488 2 3 cbr 512 ------- 1 1.0 5.0 28 32
r 0.686341 2 3 cbr 512 ------- 1 1.0 5.0 22 26
+ 0.686341 3 5 cbr 512 ------- 1 1.0 5.0 22 26
- 0.686341 3 5 cbr 512 ------- 1 1.0 5.0 22 26
+ 0.69392 1 2 cbr 512 ------- 1 1.0 5.0 29 34
- 0.69392 1 2 cbr 512 ------- 1 1.0 5.0 29 34
r 0.694213 3 4 tcp 552 ------- 2 0.0 4.0 2 23
+ 0.694213 4 3 ack 40 ------- 2 4.0 0.0 2 35
- 0.694213 4 3 ack 40 ------- 2 4.0 0.0 2 35
r 0.697227 3 5 cbr 512 ------- 1 1.0 5.0 20 24
r 0.699995 2 3 cbr 512 ------- 1 1.0 5.0 23 27
+ 0.699995 3 5 cbr 512 ------- 1 1.0 5.0 23 27
- 0.699995 3 5 cbr 512 ------- 1 1.0 5.0 23 27
r 0.705968 1 2 cbr 512 ------- 1 1.0 5.0 29 34
+ 0.705968 2 3 cbr 512 ------- 1 1.0 5.0 29 34
- 0.705968 2 3 cbr 512 ------- 1 1.0 5.0 29 34
r 0.71088 3 5 cbr 512 ------- 1 1.0 5.0 21 25
+ 0.7144 1 2 cbr 512 ------- 1 1.0 5.0 30 36
- 0.7144 1 2 cbr 512 ------- 1 1.0 5.0 30 36
r 0.717221 2 3 cbr 512 ------- 1 1.0 5.0 24 28
+ 0.717221 3 5 cbr 512 ------- 1 1.0 5.0 24 28
- 0.717221 3 5 cbr 512 ------- 1 1.0 5.0 24 28
r 0.720133 4 3 ack 40 ------- 2 4.0 0.0 1 33
+ 0.720133 3 2 ack 40 ------- 2 4.0 0.0 1 33
- 0.720133 3 2 ack 40 ------- 2 4.0 0.0 1 33
r 0.724533 3 5 cbr 512 ------- 1 1.0 5.0 22 26
r 0.726448 1 2 cbr 512 ------- 1 1.0 5.0 30 36
+ 0.726448 2 3 cbr 512 ------- 1 1.0 5.0 30 36
- 0.726448 2 3 cbr 512 ------- 1 1.0 5.0 30 36
r 0.734853 4 3 ack 40 ------- 2 4.0 0.0 2 35
+ 0.734853 3 2 ack 40 ------- 2 4.0 0.0 2 35
- 0.734853 3 2 ack 40 ------- 2 4.0 0.0 2 35
+ 0.73488 1 2 cbr 512 ------- 1 1.0 5.0 31 37
- 0.73488 1 2 cbr 512 ------- 1 1.0 5.0 31 37
r 0.737701 2 3 cbr 512 ------- 1 1.0 5.0 25 29
+ 0.737701 3 5 cbr 512 ------- 1 1.0 5.0 25 29
- 0.737701 3 5 cbr 512 ------- 1 1.0 5.0 25 29
r 0.738187 3 5 cbr 512 ------- 1 1.0 5.0 23 27
r 0.746928 1 2 cbr 512 ------- 1 1.0 5.0 31 37
+ 0.746928 2 3 cbr 512 ------- 1 1.0 5.0 31 37
- 0.746928 2 3 cbr 512 ------- 1 1.0 5.0 31 37
+ 0.75536 1 2 cbr 512 ------- 1 1.0 5.0 32 38
- 0.75536 1 2 cbr 512 ------- 1 1.0 5.0 32 38
r 0.755413 3 5 cbr 512 ------- 1 1.0 5.0 24 28
r 0.758181 2 3 cbr 512 ------- 1 1.0 5.0 26 30
+ 0.758181 3 5 cbr 512 ------- 1 1.0 5.0 26 30
- 0.758181 3 5 cbr 512 ------- 1 1.0 5.0 26 30
r 0.767408 1 2 cbr 512 ------- 1 1.0 5.0 32 38
+ 0.767408 2 3 cbr 512 ------- 1 1.0 5.0 32 38
- 0.767408 2 3 cbr 512 ------- 1 1.0 5.0 32 38
+ 0.77584 1 2 cbr 512 ------- 1 1.0 5.0 33 39
- 0.77584 1 2 cbr 512 ------- 1 1.0 5.0 33 39
r 0.775893 3 5 cbr 512 ------- 1 1.0 5.0 25 29
r 0.778661 2 3 cbr 512 ------- 1 1.0 5.0 27 31
+ 0.778661 3 5 cbr 512 ------- 1 1.0 5.0 27 31
- 0.778661 3 5 cbr 512 ------- 1 1.0 5.0 27 31
r 0.787888 1 2 cbr 512 ------- 1 1.0 5.0 33 39
+ 0.787888 2 3 cbr 512 ------- 1 1.0 5.0 33 39
- 0.787888 2 3 cbr 512 ------- 1 1.0 5.0 33 39
+ 0.79632 1 2 cbr 512 ------- 1 1.0 5.0 34 40
- 0.79632 1 2 cbr 512 ------- 1 1.0 5.0 34 40
r 0.796373 3 5 cbr 512 ------- 1 1.0 5.0 26 30
r 0.799141 2 3 cbr 512 ------- 1 1.0 5.0 28 32
+ 0.799141 3 5 cbr 512 ------- 1 1.0 5.0 28 32
- 0.799141 3 5 cbr 512 ------- 1 1.0 5.0 28 32
r 0.808368 1 2 cbr 512 ------- 1 1.0 5.0 34 40
+ 0.808368 2 3 cbr 512 ------- 1 1.0 5.0 34 40
- 0.808368 2 3 cbr 512 ------- 1 1.0 5.0 34 40
+ 0.8168 1 2 cbr 512 ------- 1 1.0 5.0 35 41
- 0.8168 1 2 cbr 512 ------- 1 1.0 5.0 35 41
r 0.816853 3 5 cbr 512 ------- 1 1.0 5.0 27 31
r 0.819621 2 3 cbr 512 ------- 1 1.0 5.0 29 34
+ 0.819621 3 5 cbr 512 ------- 1 1.0 5.0 29 34
- 0.819621 3 5 cbr 512 ------- 1 1.0 5.0 29 34
r 0.8212 3 2 ack 40 ------- 2 4.0 0.0 1 33
+ 0.8212 2 0 ack 40 ------- 2 4.0 0.0 1 33
- 0.8212 2 0 ack 40 ------- 2 4.0 0.0 1 33
r 0.828848 1 2 cbr 512 ------- 1 1.0 5.0 35 41
+ 0.828848 2 3 cbr 512 ------- 1 1.0 5.0 35 41
- 0.828848 2 3 cbr 512 ------- 1 1.0 5.0 35 41
r 0.83136 2 0 ack 40 ------- 2 4.0 0.0 1 33
+ 0.83136 0 2 tcp 552 ------- 2 0.0 4.0 3 42
- 0.83136 0 2 tcp 552 ------- 2 0.0 4.0 3 42
+ 0.83136 0 2 tcp 552 ------- 2 0.0 4.0 4 43
- 0.833568 0 2 tcp 552 ------- 2 0.0 4.0 4 43
r 0.83592 3 2 ack 40 ------- 2 4.0 0.0 2 35
+ 0.83592 2 0 ack 40 ------- 2 4.0 0.0 2 35
- 0.83592 2 0 ack 40 ------- 2 4.0 0.0 2 35
+ 0.83728 1 2 cbr 512 ------- 1 1.0 5.0 36 44
- 0.83728 1 2 cbr 512 ------- 1 1.0 5.0 36 44
r 0.837333 3 5 cbr 512 ------- 1 1.0 5.0 28 32
r 0.840101 2 3 cbr 512 ------- 1 1.0 5.0 30 36
+ 0.840101 3 5 cbr 512 ------- 1 1.0 5.0 30 36
- 0.840101 3 5 cbr 512 ------- 1 1.0 5.0 30 36
r 0.843568 0 2 tcp 552 ------- 2 0.0 4.0 3 42
+ 0.843568 2 3 tcp 552 ------- 2 0.0 4.0 3 42
- 0.843568 2 3 tcp 552 ------- 2 0.0 4.0 3 42
r 0.845776 0 2 tcp 552 ------- 2 0.0 4.0 4 43
+ 0.845776 2 3 tcp 552 ------- 2 0.0 4.0 4 43
r 0.84608 2 0 ack 40 ------- 2 4.0 0.0 2 35
+ 0.84608 0 2 tcp 552 ------- 2 0.0 4.0 5 45
- 0.84608 0 2 tcp 552 ------- 2 0.0 4.0 5 45
+ 0.84608 0 2 tcp 552 ------- 2 0.0 4.0 6 46
- 0.848288 0 2 tcp 552 ------- 2 0.0 4.0 6 46
r 0.849328 1 2 cbr 512 ------- 1 1.0 5.0 36 44
+ 0.849328 2 3 cbr 512 ------- 1 1.0 5.0 36 44
+ 0.85776 1 2 cbr 512 ------- 1 1.0 5.0 37 47
- 0.85776 1 2 cbr 512 ------- 1 1.0 5.0 37 47
r 0.857813 3 5 cbr 512 ------- 1 1.0 5.0 29 34
- 0.858288 2 3 tcp 552 ------- 2 0.0 4.0 4 43
r 0.858288 0 2 tcp 552 ------- 2 0.0 4.0 5 45
+ 0.858288 2 3 tcp 552 ------- 2 0.0 4.0 5 45
r 0.860496 0 2 tcp 552 ------- 2 0.0 4.0 6 46
+ 0.860496 2 3 tcp 552 ------- 2 0.0 4.0 6 46
r 0.860581 2 3 cbr 512 ------- 1 1.0 5.0 31 37
+ 0.860581 3 5 cbr 512 ------- 1 1.0 5.0 31 37
- 0.860581 3 5 cbr 512 ------- 1 1.0 5.0 31 37
r 0.869808 1 2 cbr 512 ------- 1 1.0 5.0 37 47
+ 0.869808 2 3 cbr 512 ------- 1 1.0 5.0 37 47
- 0.873008 2 3 cbr 512 ------- 1 1.0 5.0 36 44
+ 0.87824 1 2 cbr 512 ------- 1 1.0 5.0 38 48
- 0.87824 1 2 cbr 512 ------- 1 1.0 5.0 38 48
r 0.878293 3 5 cbr 512 ------- 1 1.0 5.0 30 36
r 0.881061 2 3 cbr 512 ------- 1 1.0 5.0 32 38
+ 0.881061 3 5 cbr 512 ------- 1 1.0 5.0 32 38
- 0.881061 3 5 cbr 512 ------- 1 1.0 5.0 32 38
- 0.886661 2 3 tcp 552 ------- 2 0.0 4.0 5 45
r 0.890288 1 2 cbr 512 ------- 1 1.0 5.0 38 48
+ 0.890288 2 3 cbr 512 ------- 1 1.0 5.0 38 48
+ 0.89872 1 2 cbr 512 ------- 1 1.0 5.0 39 49
- 0.89872 1 2 cbr 512 ------- 1 1.0 5.0 39 49
r 0.898773 3 5 cbr 512 ------- 1 1.0 5.0 31 37
- 0.901381 2 3 tcp 552 ------- 2 0.0 4.0 6 46
r 0.901541 2 3 cbr 512 ------- 1 1.0 5.0 33 39
+ 0.901541 3 5 cbr 512 ------- 1 1.0 5.0 33 39
- 0.901541 3 5 cbr 512 ------- 1 1.0 5.0 33 39
r 0.910768 1 2 cbr 512 ------- 1 1.0 5.0 39 49
+ 0.910768 2 3 cbr 512 ------- 1 1.0 5.0 39 49
- 0.916101 2 3 cbr 512 ------- 1 1.0 5.0 37 47
+ 0.9192 1 2 cbr 512 ------- 1 1.0 5.0 40 50
- 0.9192 1 2 cbr 512 ------- 1 1.0 5.0 40 50
r 0.919253 3 5 cbr 512 ------- 1 1.0 5.0 32 38
r 0.922021 2 3 cbr 512 ------- 1 1.0 5.0 34 40
+ 0.922021 3 5 cbr 512 ------- 1 1.0 5.0 34 40
- 0.922021 3 5 cbr 512 ------- 1 1.0 5.0 34 40
- 0.929755 2 3 cbr 512 ------- 1 1.0 5.0 38 48
r 0.931248 1 2 cbr 512 ------- 1 1.0 5.0 40 50
+ 0.931248 2 3 cbr 512 ------- 1 1.0 5.0 40 50
+ 0.93968 1 2 cbr 512 ------- 1 1.0 5.0 41 51
- 0.93968 1 2 cbr 512 ------- 1 1.0 5.0 41 51
r 0.939733 3 5 cbr 512 ------- 1 1.0 5.0 33 39
r 0.942501 2 3 cbr 512 ------- 1 1.0 5.0 35 41
+ 0.942501 3 5 cbr 512 ------- 1 1.0 5.0 35 41
- 0.942501 3 5 cbr 512 ------- 1 1.0 5.0 35 41
- 0.943408 2 3 cbr 512 ------- 1 1.0 5.0 39 49
r 0.951728 1 2 cbr 512 ------- 1 1.0 5.0 41 51
+ 0.951728 2 3 cbr 512 ------- 1 1.0 5.0 41 51
- 0.957061 2 3 cbr 512 ------- 1 1.0 5.0 40 50
r 0.958288 2 3 tcp 552 ------- 2 0.0 4.0 3 42
+ 0.958288 3 4 tcp 552 ------- 2 0.0 4.0 3 42
- 0.958288 3 4 tcp 552 ------- 2 0.0 4.0 3 42
+ 0.96016 1 2 cbr 512 ------- 1 1.0 5.0 42 52
- 0.96016 1 2 cbr 512 ------- 1 1.0 5.0 42 52
r 0.960213 3 5 cbr 512 ------- 1 1.0 5.0 34 40
- 0.970715 2 3 cbr 512 ------- 1 1.0 5.0 41 51
r 0.972208 1 2 cbr 512 ------- 1 1.0 5.0 42 52
+ 0.972208 2 3 cbr 512 ------- 1 1.0 5.0 42 52
r 0.973008 2 3 tcp 552 ------- 2 0.0 4.0 4 43
+ 0.973008 3 4 tcp 552 ------- 2 0.0 4.0 4 43
- 0.973008 3 4 tcp 552 ------- 2 0.0 4.0 4 43
+ 0.98064 1 2 cbr 512 ------- 1 1.0 5.0 43 53
- 0.98064 1 2 cbr 512 ------- 1 1.0 5.0 43 53
r 0.980693 3 5 cbr 512 ------- 1 1.0 5.0 35 41
- 0.984368 2 3 cbr 512 ------- 1 1.0 5.0 42 52
r 0.986661 2 3 cbr 512 ------- 1 1.0 5.0 36 44
+ 0.986661 3 5 cbr 512 ------- 1 1.0 5.0 36 44
- 0.986661 3 5 cbr 512 ------- 1 1.0 5.0 36 44
r 0.992688 1 2 cbr 512 ------- 1 1.0 5.0 43 53
+ 0.992688 2 3 cbr 512 ------- 1 1.0 5.0 43 53
- 0.998021 2 3 cbr 512 ------- 1 1.0 5.0 43 53
+ 1.00112 1 2 cbr 512 ------- 1 1.0 5.0 44 54
- 1.00112 1 2 cbr 512 ------- 1 1.0 5.0 44 54
r 1.001381 2 3 tcp 552 ------- 2 0.0 4.0 5 45
+ 1.001381 3 4 tcp 552 ------- 2 0.0 4.0 5 45
- 1.001381 3 4 tcp 552 ------- 2 0.0 4.0 5 45
r 1.00712 3 4 tcp 552 ------- 2 0.0 4.0 3 42
+ 1.00712 4 3 ack 40 ------- 2 4.0 0.0 3 55
- 1.00712 4 3 ack 40 ------- 2 4.0 0.0 3 55
r 1.013168 1 2 cbr 512 ------- 1 1.0 5.0 44 54
+ 1.013168 2 3 cbr 512 ------- 1 1.0 5.0 44 54
- 1.013168 2 3 cbr 512 ------- 1 1.0 5.0 44 54
r 1.016101 2 3 tcp 552 ------- 2 0.0 4.0 6 46
+ 1.016101 3 4 tcp 552 ------- 2 0.0 4.0 6 46
- 1.016101 3 4 tcp 552 ------- 2 0.0 4.0 6 46
+ 1.0216 1 2 cbr 512 ------- 1 1.0 5.0 45 56
- 1.0216 1 2 cbr 512 ------- 1 1.0 5.0 45 56
r 1.02184 3 4 tcp 552 ------- 2 0.0 4.0 4 43
+ 1.02184 4 3 ack 40 ------- 2 4.0 0.0 4 57
- 1.02184 4 3 ack 40 ------- 2 4.0 0.0 4 57
r 1.024853 3 5 cbr 512 ------- 1 1.0 5.0 36 44
r 1.029755 2 3 cbr 512 ------- 1 1.0 5.0 37 47
+ 1.029755 3 5 cbr 512 ------- 1 1.0 5.0 37 47
- 1.029755 3 5 cbr 512 ------- 1 1.0 5.0 37 47
r 1.033648 1 2 cbr 512 ------- 1 1.0 5.0 45 56
+ 1.033648 2 3 cbr 512 ------- 1 1.0 5.0 45 56
- 1.033648 2 3 cbr 512 ------- 1 1.0 5.0 45 56
+ 1.04208 1 2 cbr 512 ------- 1 1.0 5.0 46 58
- 1.04208 1 2 cbr 512 ------- 1 1.0 5.0 46 58
r 1.043408 2 3 cbr 512 ------- 1 1.0 5.0 38 48
+ 1.043408 3 5 cbr 512 ------- 1 1.0 5.0 38 48
- 1.043408 3 5 cbr 512 ------- 1 1.0 5.0 38 48
r 1.04776 4 3 ack 40 ------- 2 4.0 0.0 3 55
+ 1.04776 3 2 ack 40 ------- 2 4.0 0.0 3 55
- 1.04776 3 2 ack 40 ------- 2 4.0 0.0 3 55
r 1.050213 3 4 tcp 552 ------- 2 0.0 4.0 5 45
+ 1.050213 4 3 ack 40 ------- 2 4.0 0.0 5 59
- 1.050213 4 3 ack 40 ------- 2 4.0 0.0 5 59
r 1.054128 1 2 cbr 512 ------- 1 1.0 5.0 46 58
+ 1.054128 2 3 cbr 512 ------- 1 1.0 5.0 46 58
- 1.054128 2 3 cbr 512 ------- 1 1.0 5.0 46 58
r 1.057061 2 3 cbr 512 ------- 1 1.0 5.0 39 49
+ 1.057061 3 5 cbr 512 ------- 1 1.0 5.0 39 49
- 1.057061 3 5 cbr 512 ------- 1 1.0 5.0 39 49
r 1.06248 4 3 ack 40 ------- 2 4.0 0.0 4 57
+ 1.06248 3 2 ack 40 ------- 2 4.0 0.0 4 57
- 1.06248 3 2 ack 40 ------- 2 4.0 0.0 4 57
+ 1.06256 1 2 cbr 512 ------- 1 1.0 5.0 47 60
- 1.06256 1 2 cbr 512 ------- 1 1.0 5.0 47 60
r 1.064933 3 4 tcp 552 ------- 2 0.0 4.0 6 46
+ 1.064933 4 3 ack 40 ------- 2 4.0 0.0 6 61
- 1.064933 4 3 ack 40 ------- 2 4.0 0.0 6 61
r 1.067947 3 5 cbr 512 ------- 1 1.0 5.0 37 47
r 1.070715 2 3 cbr 512 ------- 1 1.0 5.0 40 50
+ 1.070715 3 5 cbr 512 ------- 1 1.0 5.0 40 50
- 1.070715 3 5 cbr 512 ------- 1 1.0 5.0 40 50
r 1.074608 1 2 cbr 512 ------- 1 1.0 5.0 47 60
+ 1.074608 2 3 cbr 512 ------- 1 1.0 5.0 47 60
- 1.074608 2 3 cbr 512 ------- 1 1.0 5.0 47 60
r 1.0816 3 5 cbr 512 ------- 1 1.0 5.0 38 48
+ 1.08304 1 2 cbr 512 ------- 1 1.0 5.0 48 62
- 1.08304 1 2 cbr 512 ------- 1 1.0 5.0 48 62
r 1.084368 2 3 cbr 512 ------- 1 1.0 5.0 41 51
+ 1.084368 3 5 cbr 512 ------- 1 1.0 5.0 41 51
- 1.084368 3 5 cbr 512 ------- 1 1.0 5.0 41 51
r 1.090853 4 3 ack 40 ------- 2 4.0 0.0 5 59
+ 1.090853 3 2 ack 40 ------- 2 4.0 0.0 5 59
- 1.090853 3 2 ack 40 ------- 2 4.0 0.0 5 59
r 1.095088 1 2 cbr 512 ------- 1 1.0 5.0 48 62
+ 1.095088 2 3 cbr 512 ------- 1 1.0 5.0 48 62
- 1.095088 2 3 cbr 512 ------- 1 1.0 5.0 48 62
r 1.095253 3 5 cbr 512 ------- 1 1.0 5.0 39 49
r 1.098021 2 3 cbr 512 ------- 1 1.0 5.0 42 52
+ 1.098021 3 5 cbr 512 ------- 1 1.0 5.0 42 52
- 1.098021 3 5 cbr 512 ------- 1 1.0 5.0 42 52
+ 1.10352 1 2 cbr 512 ------- 1 1.0 5.0 49 63
- 1.10352 1 2 cbr 512 ------- 1 1.0 5.0 49 63
r 1.105573 4 3 ack 40 ------- 2 4.0 0.0 6 61
+ 1.105573 3 2 ack 40 ------- 2 4.0 0.0 6 61
- 1.105573 3 2 ack 40 ------- 2 4.0 0.0 6 61
r 1.108907 3 5 cbr 512 ------- 1 1.0 5.0 40 50
r 1.111675 2 3 cbr 512 ------- 1 1.0 5.0 43 53
+ 1.111675 3 5 cbr 512 ------- 1 1.0 5.0 43 53
- 1.111675 3 5 cbr 512 ------- 1 1.0 5.0 43 53
r 1.115568 1 2 cbr 512 ------- 1 1.0 5.0 49 63
+ 1.115568 2 3 cbr 512 ------- 1 1.0 5.0 49 63
- 1.115568 2 3 cbr 512 ------- 1 1.0 5.0 49 63
r 1.12256 3 5 cbr 512 ------- 1 1.0 5.0 41 51
+ 1.124 1 2 cbr 512 ------- 1 1.0 5.0 50 64
- 1.124 1 2 cbr 512 ------- 1 1.0 5.0 50 64
r 1.126821 2 3 cbr 512 ------- 1 1.0 5.0 44 54
+ 1.126821 3 5 cbr 512 ------- 1 1.0 5.0 44 54
- 1.126821 3 5 cbr 512 ------- 1 1.0 5.0 44 54
r 1.136048 1 2 cbr 512 ------- 1 1.0 5.0 50 64
+ 1.136048 2 3 cbr 512 ------- 1 1.0 5.0 50 64
- 1.136048 2 3 cbr 512 ------- 1 1.0 5.0 50 64
r 1.136213 3 5 cbr 512 ------- 1 1.0 5.0 42 52
+ 1.14448 1 2 cbr 512 ------- 1 1.0 5.0 51 65
- 1.14448 1 2 cbr 512 ------- 1 1.0 5.0 51 65
r 1.147301 2 3 cbr 512 ------- 1 1.0 5.0 45 56
+ 1.147301 3 5 cbr 512 ------- 1 1.0 5.0 45 56
- 1.147301 3 5 cbr 512 ------- 1 1.0 5.0 45 56
r 1.148827 3 2 ack 40 ------- 2 4.0 0.0 3 55
+ 1.148827 2 0 ack 40 ------- 2 4.0 0.0 3 55
- 1.148827 2 0 ack 40 ------- 2 4.0 0.0 3 55
r 1.149867 3 5 cbr 512 ------- 1 1.0 5.0 43 53
r 1.156528 1 2 cbr 512 ------- 1 1.0 5.0 51 65
+ 1.156528 2 3 cbr 512 ------- 1 1.0 5.0 51 65
- 1.156528 2 3 cbr 512 ------- 1 1.0 5.0 51 65
r 1.158987 2 0 ack 40 ------- 2 4.0 0.0 3 55
+ 1.158987 0 2 tcp 552 ------- 2 0.0 4.0 7 66
- 1.158987 0 2 tcp 552 ------- 2 0.0 4.0 7 66
+ 1.158987 0 2 tcp 552 ------- 2 0.0 4.0 8 67
- 1.161195 0 2 tcp 552 ------- 2 0.0 4.0 8 67
r 1.163547 3 2 ack 40 ------- 2 4.0 0.0 4 57
+ 1.163547 2 0 ack 40 ------- 2 4.0 0.0 4 57
- 1.163547 2 0 ack 40 ------- 2 4.0 0.0 4 57
+ 1.16496 1 2 cbr 512 ------- 1 1.0 5.0 52 68
- 1.16496 1 2 cbr 512 ------- 1 1.0 5.0 52 68
r 1.165013 3 5 cbr 512 ------- 1 1.0 5.0 44 54
r 1.167781 2 3 cbr 512 ------- 1 1.0 5.0 46 58
+ 1.167781 3 5 cbr 512 ------- 1 1.0 5.0 46 58
- 1.167781 3 5 cbr 512 ------- 1 1.0 5.0 46 58
r 1.171195 0 2 tcp 552 ------- 2 0.0 4.0 7 66
+ 1.171195 2 3 tcp 552 ------- 2 0.0 4.0 7 66
- 1.171195 2 3 tcp 552 ------- 2 0.0 4.0 7 66
r 1.173403 0 2 tcp 552 ------- 2 0.0 4.0 8 67
+ 1.173403 2 3 tcp 552 ------- 2 0.0 4.0 8 67
r 1.173707 2 0 ack 40 ------- 2 4.0 0.0 4 57
+ 1.173707 0 2 tcp 552 ------- 2 0.0 4.0 9 69
- 1.173707 0 2 tcp 552 ------- 2 0.0 4.0 9 69
+ 1.173707 0 2 tcp 552 ------- 2 0.0 4.0 10 70
- 1.175915 0 2 tcp 552 ------- 2 0.0 4.0 10 70
r 1.177008 1 2 cbr 512 ------- 1 1.0 5.0 52 68
+ 1.177008 2 3 cbr 512 ------- 1 1.0 5.0 52 68
+ 1.18544 1 2 cbr 512 ------- 1 1.0 5.0 53 71
- 1.18544 1 2 cbr 512 ------- 1 1.0 5.0 53 71
r 1.185493 3 5 cbr 512 ------- 1 1.0 5.0 45 56
r 1.185915 0 2 tcp 552 ------- 2 0.0 4.0 9 69
+ 1.185915 2 3 tcp 552 ------- 2 0.0 4.0 9 69
- 1.185915 2 3 tcp 552 ------- 2 0.0 4.0 8 67
r 1.188123 0 2 tcp 552 ------- 2 0.0 4.0 10 70
+ 1.188123 2 3 tcp 552 ------- 2 0.0 4.0 10 70
r 1.188261 2 3 cbr 512 ------- 1 1.0 5.0 47 60
+ 1.188261 3 5 cbr 512 ------- 1 1.0 5.0 47 60
- 1.188261 3 5 cbr 512 ------- 1 1.0 5.0 47 60
r 1.19192 3 2 ack 40 ------- 2 4.0 0.0 5 59
+ 1.19192 2 0 ack 40 ------- 2 4.0 0.0 5 59
- 1.19192 2 0 ack 40 ------- 2 4.0 0.0 5 59
r 1.197488 1 2 cbr 512 ------- 1 1.0 5.0 53 71
+ 1.197488 2 3 cbr 512 ------- 1 1.0 5.0 53 71
- 1.200635 2 3 cbr 512 ------- 1 1.0 5.0 52 68
r 1.20208 2 0 ack 40 ------- 2 4.0 0.0 5 59
+ 1.20208 0 2 tcp 552 ------- 2 0.0 4.0 11 72
- 1.20208 0 2 tcp 552 ------- 2 0.0 4.0 11 72
+ 1.20208 0 2 tcp 552 ------- 2 0.0 4.0 12 73
- 1.204288 0 2 tcp 552 ------- 2 0.0 4.0 12 73
+ 1.20592 1 2 cbr 512 ------- 1 1.0 5.0 54 74
- 1.20592 1 2 cbr 512 ------- 1 1.0 5.0 54 74
r 1.205973 3 5 cbr 512 ------- 1 1.0 5.0 46 58
r 1.20664 3 2 ack 40 ------- 2 4.0 0.0 6 61
+ 1.20664 2 0 ack 40 ------- 2 4.0 0.0 6 61
- 1.20664 2 0 ack 40 ------- 2 4.0 0.0 6 61
r 1.208741 2 3 cbr 512 ------- 1 1.0 5.0 48 62
+ 1.208741 3 5 cbr 512 ------- 1 1.0 5.0 48 62
- 1.208741 3 5 cbr 512 ------- 1 1.0 5.0 48 62
r 1.214288 0 2 tcp 552 ------- 2 0.0 4.0 11 72
+ 1.214288 2 3 tcp 552 ------- 2 0.0 4.0 11 72
- 1.214288 2 3 tcp 552 ------- 2 0.0 4.0 9 69
r 1.216496 0 2 tcp 552 ------- 2 0.0 4.0 12 73
+ 1.216496 2 3 tcp 552 ------- 2 0.0 4.0 12 73
r 1.2168 2 0 ack 40 ------- 2 4.0 0.0 6 61
+ 1.2168 0 2 tcp 552 ------- 2 0.0 4.0 13 75
- 1.2168 0 2 tcp 552 ------- 2 0.0 4.0 13 75
+ 1.2168 0 2 tcp 552 ------- 2 0.0 4.0 14 76
r 1.217968 1 2 cbr 512 ------- 1 1.0 5.0 54 74
+ 1.217968 2 3 cbr 512 ------- 1 1.0 5.0 54 74
- 1.219008 0 2 tcp 552 ------- 2 0.0 4.0 14 76
+ 1.2264 1 2 cbr 512 ------- 1 1.0 5.0 55 77
- 1.2264 1 2 cbr 512 ------- 1 1.0 5.0 55 77
r 1.226453 3 5 cbr 512 ------- 1 1.0 5.0 47 60
r 1.229008 0 2 tcp 552 ------- 2 0.0 4.0 13 75
+ 1.229008 2 3 tcp 552 ------- 2 0.0 4.0 13 75
- 1.229008 2 3 tcp 552 ------- 2 0.0 4.0 10 70
r 1.229221 2 3 cbr 512 ------- 1 1.0 5.0 49 63
+ 1.229221 3 5 cbr 512 ------- 1 1.0 5.0 49 63
- 1.229221 3 5 cbr 512 ------- 1 1.0 5.0 49 63
r 1.231216 0 2 tcp 552 ------- 2 0.0 4.0 14 76
+ 1.231216 2 3 tcp 552 ------- 2 0.0 4.0 14 76
r 1.238448 1 2 cbr 512 ------- 1 1.0 5.0 55 77
+ 1.238448 2 3 cbr 512 ------- 1 1.0 5.0 55 77
- 1.243728 2 3 cbr 512 ------- 1 1.0 5.0 53 71
+ 1.24688 1 2 cbr 512 ------- 1 1.0 5.0 56 78
- 1.24688 1 2 cbr 512 ------- 1 1.0 5.0 56 78
r 1.246933 3 5 cbr 512 ------- 1 1.0 5.0 48 62
r 1.249701 2 3 cbr 512 ------- 1 1.0 5.0 50 64
+ 1.249701 3 5 cbr 512 ------- 1 1.0 5.0 50 64
- 1.249701 3 5 cbr 512 ------- 1 1.0 5.0 50 64
- 1.257381 2 3 tcp 552 ------- 2 0.0 4.0 11 72
r 1.258928 1 2 cbr 512 ------- 1 1.0 5.0 56 78
+ 1.258928 2 3 cbr 512 ------- 1 1.0 5.0 56 78
+ 1.26736 1 2 cbr 512 ------- 1 1.0 5.0 57 79
- 1.26736 1 2 cbr 512 ------- 1 1.0 5.0 57 79
r 1.267413 3 5 cbr 512 ------- 1 1.0 5.0 49 63
r 1.270181 2 3 cbr 512 ------- 1 1.0 5.0 51 65