V -t * -v 1.0a5 -a 0
A -t * -n 1 -p 0 -o 0x7fffffff -c 30 -a 1
A -t * -h 1 -m 1073741823 -s 0
n -t * -a 4 -s 4 -S UP -v circle -c black -i black
n -t * -a 0 -s 0 -S UP -v circle -c black -i black
n -t * -a 5 -s 5 -S UP -v circle -c black -i black
n -t * -a 1 -s 1 -S UP -v circle -c black -i black
n -t * -a 2 -s 2 -S UP -v circle -c black -i black
n -t * -a 3 -s 3 -S UP -v circle -c black -i black
l -t * -s 1 -d 2 -S UP -r 500000 -D 0.0050000000000000001 -c black -o right-up
l -t * -s 2 -d 3 -S UP -r 500000 -D 0.0050000000000000001 -c black -o right-down
l -t * -s 3 -d 4 -S UP -r 500000 -D 0.0050000000000000001 -c black -o down
l -t * -s 4 -d 5 -S UP -r 500000 -D 0.0050000000000000001 -c black -o left-down
l -t * -s 5 -d 0 -S UP -r 500000 -D 0.0050000000000000001 -c black -o left-up
l -t * -s 0 -d 1 -S UP -r 500000 -D 0.0050000000000000001 -c black -o up
+ -t 0.000169788487334637 -s 0 -d 1 -p rtProtoDV -e 6 -c 0 -i 0 -a 0 -x {0.2 1.6 -1 ------- null}
- -t 0.000169788487334637 -s 0 -d 1 -p rtProtoDV -e 6 -c 0 -i 0 -a 0 -x {0.2 1.6 -1 ------- null}
h -t 0.000169788487334637 -s 0 -d 1 -p rtProtoDV -e 6 -c 0 -i 0 -a 0 -x {0.2 1.6 -1 ------- null}
+ -t 0.000169788487334637 -s 0 -d 5 -p rtProtoDV -e 6 -c 0 -i 1 -a 0 -x {0.2 5.2 -1 ------- null}
- -t 0.000169788487334637 -s 0 -d 5 -p rtProtoDV -e 6 -c 0 -i 1 -a 0 -x {0.2 5.2 -1 ------- null}
h -t 0.000169788487334637 -s 0 -d 5 -p rtProtoDV -e 6 -c 0 -i 1 -a 0 -x {0.2 5.2 -1 ------- null}
r -t 0.00526578848733464 -s 0 -d 1 -p rtProtoDV -e 6 -c 0 -i 0 -a 0 -x {0.2 1.6 -1 ------- null}
+ -t 0.00526578848733464 -s 1 -d 0 -p rtProtoDV -e 6 -c 0 -i 2 -a 0 -x {1.6 0.2 -1 ------- null}
- -t 0.00526578848733464 -s 1 -d 0 -p rtProtoDV -e 6 -c 0 -i 2 -a 0 -x {1.6 0.2 -1 ------- null}
h -t 0.00526578848733464 -s 1 -d 0 -p rtProtoDV -e 6 -c 0 -i 2 -a 0 -x {1.6 0.2 -1 ------- null}
+ -t 0.00526578848733464 -s 1 -d 2 -p rtProtoDV -e 6 -c 0 -i 3 -a 0 -x {1.6 2.2 -1 ------- null}
- -t 0.00526578848733464 -s 1 -d 2 -p rtProtoDV -e 6 -c 0 -i 3 -a 0 -x {1.6 2.2 -1 ------- null}
h -t 0.00526578848733464 -s 1 -d 2 -p rtProtoDV -e 6 -c 0 -i 3 -a 0 -x {1.6 2.2 -1 ------- null}
r -t 0.00526578848733464 -s 0 -d 5 -p rtProtoDV -e 6 -c 0 -i 1 -a 0 -x {0.2 5.2 -1 ------- null}
+ -t 0.00526578848733464 -s 5 -d 0 -p rtProtoDV -e 6 -c 0 -i 4 -a 0 -x {5.2 0.2 -1 ------- null}
- -t 0.00526578848733464 -s 5 -d 0 -p rtProtoDV -e 6 -c 0 -i 4 -a 0 -x {5.2 0.2 -1 ------- null}
h -t 0.00526578848733464 -s 5 -d 0 -p rtProtoDV -e 6 -c 0 -i 4 -a 0 -x {5.2 0.2 -1 ------- null}
+ -t 0.00526578848733464 -s 5 -d 4 -p rtProtoDV -e 6 -c 0 -i 5 -a 0 -x {5.2 4.2 -1 ------- null}
- -t 0.00526578848733464 -s 5 -d 4 -p rtProtoDV -e 6 -c 0 -i 5 -a 0 -x {5.2 4.2 -1 ------- null}
h -t 0.00526578848733464 -s 5 -d 4 -p rtProtoDV -e 6 -c 0 -i 5 -a 0 -x {5.2 4.2 -1 ------- null}
+ -t 0.00710233021858257 -s 2 -d 1 -p rtProtoDV -e 6 -c 0 -i 6 -a 0 -x {2.2 1.6 -1 ------- null}
- -t 0.00710233021858257 -s 2 -d 1 -p rtProtoDV -e 6 -c 0 -i 6 -a 0 -x {2.2 1.6 -1 ------- null}
h -t 0.00710233021858257 -s 2 -d 1 -p rtProtoDV -e 6 -c 0 -i 6 -a 0 -x {2.2 1.6 -1 ------- null}
+ -t 0.00710233021858257 -s 2 -d 3 -p rtProtoDV -e 6 -c 0 -i 7 -a 0 -x {2.2 3.2 -1 ------- null}
- -t 0.00710233021858257 -s 2 -d 3 -p rtProtoDV -e 6 -c 0 -i 7 -a 0 -x {2.2 3.2 -1 ------- null}
h -t 0.00710233021858257 -s 2 -d 3 -p rtProtoDV -e 6 -c 0 -i 7 -a 0 -x {2.2 3.2 -1 ------- null}
+ -t 0.01 -s 1 -d 2 -p cbr -e 512 -c 2 -i 8 -a 2 -x {1.0 2.0 0 ------- null}
- -t 0.01 -s 1 -d 2 -p cbr -e 512 -c 2 -i 8 -a 2 -x {1.0 2.0 0 ------- null}
h -t 0.01 -s 1 -d 2 -p cbr -e 512 -c 2 -i 8 -a 2 -x {1.0 2.0 -1 ------- null}
+ -t 0.01 -s 1 -d 0 -p cbr -e 512 -c 2 -i 11 -a 2 -x {1.3 5.0 0 ------- null}
- -t 0.01 -s 1 -d 0 -p cbr -e 512 -c 2 -i 11 -a 2 -x {1.3 5.0 0 ------- null}
h -t 0.01 -s 1 -d 0 -p cbr -e 512 -c 2 -i 11 -a 2 -x {1.3 5.0 -1 ------- null}
+ -t 0.01 -s 1 -d 0 -p cbr -e 512 -c 2 -i 12 -a 2 -x {1.4 0.0 0 ------- null}
r -t 0.0103617884873346 -s 1 -d 0 -p rtProtoDV -e 6 -c 0 -i 2 -a 0 -x {1.6 0.2 -1 ------- null}
+ -t 0.0103617884873346 -s 0 -d 1 -p rtProtoDV -e 6 -c 0 -i 13 -a 0 -x {0.2 1.6 -1 ------- null}
- -t 0.0103617884873346 -s 0 -d 1 -p rtProtoDV -e 6 -c 0 -i 13 -a 0 -x {0.2 1.6 -1 ------- null}
h -t 0.0103617884873346 -s 0 -d 1 -p rtProtoDV -e 6 -c 0 -i 13 -a 0 -x {0.2 1.6 -1 ------- null}
+ -t 0.0103617884873346 -s 0 -d 5 -p rtProtoDV -e 6 -c 0 -i 14 -a 0 -x {0.2 5.2 -1 ------- null}
- -t 0.0103617884873346 -s 0 -d 5 -p rtProtoDV -e 6 -c 0 -i 14 -a 0 -x {0.2 5.2 -1 ------- null}
h -t 0.0103617884873346 -s 0 -d 5 -p rtProtoDV -e 6 -c 0 -i 14 -a 0 -x {0.2 5.2 -1 ------- null}
r -t 0.0103617884873346 -s 1 -d 2 -p rtProtoDV -e 6 -c 0 -i 3 -a 0 -x {1.6 2.2 -1 ------- null}
+ -t 0.0103617884873346 -s 2 -d 1 -p rtProtoDV -e 6 -c 0 -i 15 -a 0 -x {2.2 1.6 -1 ------- null}
- -t 0.0103617884873346 -s 2 -d 1 -p rtProtoDV -e 6 -c 0 -i 15 -a 0 -x {2.2 1.6 -1 ------- null}
h -t 0.0103617884873346 -s 2 -d 1 -p rtProtoDV -e 6 -c 0 -i 15 -a 0 -x {2.2 1.6 -1 ------- null}
+ -t 0.0103617884873346 -s 2 -d 3 -p rtProtoDV -e 6 -c 0 -i 16 -a 0 -x {2.2 3.2 -1 ------- null}
- -t 0.0103617884873346 -s 2 -d 3 -p rtProtoDV -e 6 -c 0 -i 16 -a 0 -x {2.2 3.2 -1 ------- null}
h -t 0.0103617884873346 -s 2 -d 3 -p rtProtoDV -e 6 -c 0 -i 16 -a 0 -x {2.2 3.2 -1 ------- null}
r -t 0.0103617884873346 -s 5 -d 0 -p rtProtoDV -e 6 -c 0 -i 4 -a 0 -x {5.2 0.2 -1 ------- null}
+ -t 0.0103617884873346 -s 0 -d 1 -p rtProtoDV -e 6 -c 0 -i 17 -a 0 -x {0.2 1.6 -1 ------- null}
+ -t 0.0103617884873346 -s 0 -d 5 -p rtProtoDV -e 6 -c 0 -i 18 -a 0 -x {0.2 5.2 -1 ------- null}
r -t 0.0103617884873346 -s 5 -d 4 -p rtProtoDV -e 6 -c 0 -i 5 -a 0 -x {5.2 4.2 -1 ------- null}
+ -t 0.0103617884873346 -s 4 -d 3 -p rtProtoDV -e 6 -c 0 -i 19 -a 0 -x {4.2 3.2 -1 ------- null}
- -t 0.0103617884873346 -s 4 -d 3 -p rtProtoDV -e 6 -c 0 -i 19 -a 0 -x {4.2 3.2 -1 ------- null}
h -t 0.0103617884873346 -s 4 -d 3 -p rtProtoDV -e 6 -c 0 -i 19 -a 0 -x {4.2 3.2 -1 ------- null}
+ -t 0.0103617884873346 -s 4 -d 5 -p rtProtoDV -e 6 -c 0 -i 20 -a 0 -x {4.2 5.2 -1 ------- null}
- -t 0.0103617884873346 -s 4 -d 5 -p rtProtoDV -e 6 -c 0 -i 20 -a 0 -x {4.2 5.2 -1 ------- null}
h -t 0.0103617884873346 -s 4 -d 5 -p rtProtoDV -e 6 -c 0 -i 20 -a 0 -x {4.2 5.2 -1 ------- null}
- -t 0.0104577884873346 -s 0 -d 1 -p rtProtoDV -e 6 -c 0 -i 17 -a 0 -x {0.2 1.6 -1 ------- null}
h -t 0.0104577884873346 -s 0 -d 1 -p rtProtoDV -e 6 -c 0 -i 17 -a 0 -x {0.2 1.6 -1 ------- null}
- -t 0.0104577884873346 -s 0 -d 5 -p rtProtoDV -e 6 -c 0 -i 18 -a 0 -x {0.2 5.2 -1 ------- null}
h -t 0.0104577884873346 -s 0 -d 5 -p rtProtoDV -e 6 -c 0 -i 18 -a 0 -x {0.2 5.2 -1 ------- null}
r -t 0.0121983302185826 -s 2 -d 1 -p rtProtoDV -e 6 -c 0 -i 6 -a 0 -x {2.2 1.6 -1 ------- null}
+ -t 0.0121983302185826 -s 1 -d 0 -p rtProtoDV -e 6 -c 0 -i 21 -a 0 -x {1.6 0.2 -1 ------- null}
+ -t 0.0121983302185826 -s 1 -d 2 -p rtProtoDV -e 6 -c 0 -i 22 -a 0 -x {1.6 2.2 -1 ------- null}
r -t 0.0121983302185826 -s 2 -d 3 -p rtProtoDV -e 6 -c 0 -i 7 -a 0 -x {2.2 3.2 -1 ------- null}
+ -t 0.0121983302185826 -s 3 -d 2 -p rtProtoDV -e 6 -c 0 -i 23 -a 0 -x {3.2 2.2 -1 ------- null}
- -t 0.0121983302185826 -s 3 -d 2 -p rtProtoDV -e 6 -c 0 -i 23 -a 0 -x {3.2 2.2 -1 ------- null}
h -t 0.0121983302185826 -s 3 -d 2 -p rtProtoDV -e 6 -c 0 -i 23 -a 0 -x {3.2 2.2 -1 ------- null}
+ -t 0.0121983302185826 -s 3 -d 4 -p rtProtoDV -e 6 -c 0 -i 24 -a 0 -x {3.2 4.2 -1 ------- null}
- -t 0.0121983302185826 -s 3 -d 4 -p rtProtoDV -e 6 -c 0 -i 24 -a 0 -x {3.2 4.2 -1 ------- null}
h -t 0.0121983302185826 -s 3 -d 4 -p rtProtoDV -e 6 -c 0 -i 24 -a 0 -x {3.2 4.2 -1 ------- null}
r -t 0.0154577884873346 -s 0 -d 1 -p rtProtoDV -e 6 -c 0 -i 13 -a 0 -x {0.2 1.6 -1 ------- null}
r -t 0.0154577884873346 -s 0 -d 5 -p rtProtoDV -e 6 -c 0 -i 14 -a 0 -x {0.2 5.2 -1 ------- null}
+ -t 0.0154577884873346 -s 5 -d 0 -p rtProtoDV -e 6 -c 0 -i 25 -a 0 -x {5.2 0.2 -1 ------- null}
- -t 0.0154577884873346 -s 5 -d 0 -p rtProtoDV -e 6 -c 0 -i 25 -a 0 -x {5.2 0.2 -1 ------- null}
h -t 0.0154577884873346 -s 5 -d 0 -p rtProtoDV -e 6 -c 0 -i 25 -a 0 -x {5.2 0.2 -1 ------- null}
+ -t 0.0154577884873346 -s 5 -d 4 -p rtProtoDV -e 6 -c 0 -i 26 -a 0 -x {5.2 4.2 -1 ------- null}
- -t 0.0154577884873346 -s 5 -d 4 -p rtProtoDV -e 6 -c 0 -i 26 -a 0 -x {5.2 4.2 -1 ------- null}
h -t 0.0154577884873346 -s 5 -d 4 -p rtProtoDV -e 6 -c 0 -i 26 -a 0 -x {5.2 4.2 -1 ------- null}
r -t 0.0154577884873346 -s 2 -d 1 -p rtProtoDV -e 6 -c 0 -i 15 -a 0 -x {2.2 1.6 -1 ------- null}
r -t 0.0154577884873346 -s 2 -d 3 -p rtProtoDV -e 6 -c 0 -i 16 -a 0 -x {2.2 3.2 -1 ------- null}
+ -t 0.0154577884873346 -s 3 -d 2 -p rtProtoDV -e 6 -c 0 -i 27 -a 0 -x {3.2 2.2 -1 ------- null}
- -t 0.0154577884873346 -s 3 -d 2 -p rtProtoDV -e 6 -c 0 -i 27 -a 0 -x {3.2 2.2 -1 ------- null}
h -t 0.0154577884873346 -s 3 -d 2 -p rtProtoDV -e 6 -c 0 -i 27 -a 0 -x {3.2 2.2 -1 ------- null}
+ -t 0.0154577884873346 -s 3 -d 4 -p rtProtoDV -e 6 -c 0 -i 28 -a 0 -x {3.2 4.2 -1 ------- null}
- -t 0.0154577884873346 -s 3 -d 4 -p rtProtoDV -e 6 -c 0 -i 28 -a 0 -x {3.2 4.2 -1 ------- null}
h -t 0.0154577884873346 -s 3 -d 4 -p rtProtoDV -e 6 -c 0 -i 28 -a 0 -x {3.2 4.2 -1 ------- null}
r -t 0.0154577884873346 -s 4 -d 3 -p rtProtoDV -e 6 -c 0 -i 19 -a 0 -x {4.2 3.2 -1 ------- null}
+ -t 0.0154577884873346 -s 3 -d 2 -p rtProtoDV -e 6 -c 0 -i 29 -a 0 -x {3.2 2.2 -1 ------- null}
+ -t 0.0154577884873346 -s 3 -d 4 -p rtProtoDV -e 6 -c 0 -i 30 -a 0 -x {3.2 4.2 -1 ------- null}
r -t 0.0154577884873346 -s 4 -d 5 -p rtProtoDV -e 6 -c 0 -i 20 -a 0 -x {4.2 5.2 -1 ------- null}
+ -t 0.0154577884873346 -s 5 -d 0 -p rtProtoDV -e 6 -c 0 -i 31 -a 0 -x {5.2 0.2 -1 ------- null}
+ -t 0.0154577884873346 -s 5 -d 4 -p rtProtoDV -e 6 -c 0 -i 32 -a 0 -x {5.2 4.2 -1 ------- null}
r -t 0.0155537884873346 -s 0 -d 1 -p rtProtoDV -e 6 -c 0 -i 17 -a 0 -x {0.2 1.6 -1 ------- null}
+ -t 0.0155537884873346 -s 1 -d 0 -p rtProtoDV -e 6 -c 0 -i 33 -a 0 -x {1.6 0.2 -1 ------- null}
+ -t 0.0155537884873346 -s 1 -d 2 -p rtProtoDV -e 6 -c 0 -i 34 -a 0 -x {1.6 2.2 -1 ------- null}
r -t 0.0155537884873346 -s 0 -d 5 -p rtProtoDV -e 6 -c 0 -i 18 -a 0 -x {0.2 5.2 -1 ------- null}
- -t 0.0155537884873346 -s 5 -d 0 -p rtProtoDV -e 6 -c 0 -i 31 -a 0 -x {5.2 0.2 -1 ------- null}
h -t 0.0155537884873346 -s 5 -d 0 -p rtProtoDV -e 6 -c 0 -i 31 -a 0 -x {5.2 0.2 -1 ------- null}
- -t 0.0155537884873346 -s 5 -d 4 -p rtProtoDV -e 6 -c 0 -i 32 -a 0 -x {5.2 4.2 -1 ------- null}
h -t 0.0155537884873346 -s 5 -d 4 -p rtProtoDV -e 6 -c 0 -i 32 -a 0 -x {5.2 4.2 -1 ------- null}
- -t 0.0155537884873346 -s 3 -d 2 -p rtProtoDV -e 6 -c 0 -i 29 -a 0 -x {3.2 2.2 -1 ------- null}
h -t 0.0155537884873346 -s 3 -d 2 -p rtProtoDV -e 6 -c 0 -i 29 -a 0 -x {3.2 2.2 -1 ------- null}
- -t 0.0155537884873346 -s 3 -d 4 -p rtProtoDV -e 6 -c 0 -i 30 -a 0 -x {3.2 4.2 -1 ------- null}
h -t 0.0155537884873346 -s 3 -d 4 -p rtProtoDV -e 6 -c 0 -i 30 -a 0 -x {3.2 4.2 -1 ------- null}
r -t 0.0172943302185826 -s 3 -d 2 -p rtProtoDV -e 6 -c 0 -i 23 -a 0 -x {3.2 2.2 -1 ------- null}
+ -t 0.0172943302185826 -s 2 -d 1 -p rtProtoDV -e 6 -c 0 -i 35 -a 0 -x {2.2 1.6 -1 ------- null}
- -t 0.0172943302185826 -s 2 -d 1 -p rtProtoDV -e 6 -c 0 -i 35 -a 0 -x {2.2 1.6 -1 ------- null}
h -t 0.0172943302185826 -s 2 -d 1 -p rtProtoDV -e 6 -c 0 -i 35 -a 0 -x {2.2 1.6 -1 ------- null}
+ -t 0.0172943302185826 -s 2 -d 3 -p rtProtoDV -e 6 -c 0 -i 36 -a 0 -x {2.2 3.2 -1 ------- null}
- -t 0.0172943302185826 -s 2 -d 3 -p rtProtoDV -e 6 -c 0 -i 36 -a 0 -x {2.2 3.2 -1 ------- null}
h -t 0.0172943302185826 -s 2 -d 3 -p rtProtoDV -e 6 -c 0 -i 36 -a 0 -x {2.2 3.2 -1 ------- null}
r -t 0.0172943302185826 -s 3 -d 4 -p rtProtoDV -e 6 -c 0 -i 24 -a 0 -x {3.2 4.2 -1 ------- null}
+ -t 0.0172943302185826 -s 4 -d 3 -p rtProtoDV -e 6 -c 0 -i 37 -a 0 -x {4.2 3.2 -1 ------- null}
- -t 0.0172943302185826 -s 4 -d 3 -p rtProtoDV -e 6 -c 0 -i 37 -a 0 -x {4.2 3.2 -1 ------- null}
h -t 0.0172943302185826 -s 4 -d 3 -p rtProtoDV -e 6 -c 0 -i 37 -a 0 -x {4.2 3.2 -1 ------- null}
+ -t 0.0172943302185826 -s 4 -d 5 -p rtProtoDV -e 6 -c 0 -i 38 -a 0 -x {4.2 5.2 -1 ------- null}
- -t 0.0172943302185826 -s 4 -d 5 -p rtProtoDV -e 6 -c 0 -i 38 -a 0 -x {4.2 5.2 -1 ------- null}
h -t 0.0172943302185826 -s 4 -d 5 -p rtProtoDV -e 6 -c 0 -i 38 -a 0 -x {4.2 5.2 -1 ------- null}
- -t 0.018192 -s 1 -d 2 -p rtProtoDV -e 6 -c 0 -i 22 -a 0 -x {1.6 2.2 -1 ------- null}
h -t 0.018192 -s 1 -d 2 -p rtProtoDV -e 6 -c 0 -i 22 -a 0 -x {1.6 2.2 -1 ------- null}
- -t 0.018192 -s 1 -d 0 -p cbr -e 512 -c 2 -i 12 -a 2 -x {1.4 0.0 0 ------- null}
h -t 0.018192 -s 1 -d 0 -p cbr -e 512 -c 2 -i 12 -a 2 -x {1.4 0.0 -1 ------- null}
- -t 0.018288 -s 1 -d 2 -p rtProtoDV -e 6 -c 0 -i 34 -a 0 -x {1.6 2.2 -1 ------- null}
h -t 0.018288 -s 1 -d 2 -p rtProtoDV -e 6 -c 0 -i 34 -a 0 -x {1.6 2.2 -1 ------- null}
r -t 0.0205537884873346 -s 5 -d 0 -p rtProtoDV -e 6 -c 0 -i 25 -a 0 -x {5.2 0.2 -1 ------- null}
r -t 0.0205537884873346 -s 5 -d 4 -p rtProtoDV -e 6 -c 0 -i 26 -a 0 -x {5.2 4.2 -1 ------- null}
r -t 0.0205537884873346 -s 3 -d 2 -p rtProtoDV -e 6 -c 0 -i 27 -a 0 -x {3.2 2.2 -1 ------- null}
r -t 0.0205537884873346 -s 3 -d 4 -p rtProtoDV -e 6 -c 0 -i 28 -a 0 -x {3.2 4.2 -1 ------- null}
r -t 0.0206497884873346 -s 5 -d 0 -p rtProtoDV -e 6 -c 0 -i 31 -a 0 -x {5.2 0.2 -1 ------- null}
+ -t 0.0206497884873346 -s 0 -d 1 -p rtProtoDV -e 6 -c 0 -i 39 -a 0 -x {0.2 1.6 -1 ------- null}
- -t 0.0206497884873346 -s 0 -d 1 -p rtProtoDV -e 6 -c 0 -i 39 -a 0 -x {0.2 1.6 -1 ------- null}
h -t 0.0206497884873346 -s 0 -d 1 -p rtProtoDV -e 6 -c 0 -i 39 -a 0 -x {0.2 1.6 -1 ------- null}
+ -t 0.0206497884873346 -s 0 -d 5 -p rtProtoDV -e 6 -c 0 -i 40 -a 0 -x {0.2 5.2 -1 ------- null}
- -t 0.0206497884873346 -s 0 -d 5 -p rtProtoDV -e 6 -c 0 -i 40 -a 0 -x {0.2 5.2 -1 ------- null}
h -t 0.0206497884873346 -s 0 -d 5 -p rtProtoDV -e 6 -c 0 -i 40 -a 0 -x {0.2 5.2 -1 ------- null}
r -t 0.0206497884873346 -s 5 -d 4 -p rtProtoDV -e 6 -c 0 -i 32 -a 0 -x {5.2 4.2 -1 ------- null}
r -t 0.0206497884873346 -s 3 -d 2 -p rtProtoDV -e 6 -c 0 -i 29 -a 0 -x {3.2 2.2 -1 ------- null}
r -t 0.0206497884873346 -s 3 -d 4 -p rtProtoDV -e 6 -c 0 -i 30 -a 0 -x {3.2 4.2 -1 ------- null}
r -t 0.0223903302185826 -s 2 -d 1 -p rtProtoDV -e 6 -c 0 -i 35 -a 0 -x {2.2 1.6 -1 ------- null}
r -t 0.0223903302185826 -s 2 -d 3 -p rtProtoDV -e 6 -c 0 -i 36 -a 0 -x {2.2 3.2 -1 ------- null}
r -t 0.0223903302185826 -s 4 -d 3 -p rtProtoDV -e 6 -c 0 -i 37 -a 0 -x {4.2 3.2 -1 ------- null}
r -t 0.0223903302185826 -s 4 -d 5 -p rtProtoDV -e 6 -c 0 -i 38 -a 0 -x {4.2 5.2 -1 ------- null}
r -t 0.023192 -s 1 -d 2 -p cbr -e 512 -c 2 -i 8 -a 2 -x {1.0 2.0 0 ------- null}
r -t 0.023192 -s 1 -d 0 -p cbr -e 512 -c 2 -i 11 -a 2 -x {1.3 5.0 0 ------- null}
+ -t 0.023192 -s 0 -d 5 -p cbr -e 512 -c 2 -i 11 -a 2 -x {1.3 5.0 0 ------- null}
- -t 0.023192 -s 0 -d 5 -p cbr -e 512 -c 2 -i 11 -a 2 -x {1.3 5.0 0 ------- null}
h -t 0.023192 -s 0 -d 5 -p cbr -e 512 -c 2 -i 11 -a 2 -x {1.3 5.0 -1 ------- null}
r -t 0.023288 -s 1 -d 2 -p rtProtoDV -e 6 -c 0 -i 22 -a 0 -x {1.6 2.2 -1 ------- null}
r -t 0.023384 -s 1 -d 2 -p rtProtoDV -e 6 -c 0 -i 34 -a 0 -x {1.6 2.2 -1 ------- null}
r -t 0.0257457884873346 -s 0 -d 1 -p rtProtoDV -e 6 -c 0 -i 39 -a 0 -x {0.2 1.6 -1 ------- null}
r -t 0.0257457884873346 -s 0 -d 5 -p rtProtoDV -e 6 -c 0 -i 40 -a 0 -x {0.2 5.2 -1 ------- null}
- -t 0.026384 -s 1 -d 0 -p rtProtoDV -e 6 -c 0 -i 21 -a 0 -x {1.6 0.2 -1 ------- null}
h -t 0.026384 -s 1 -d 0 -p rtProtoDV -e 6 -c 0 -i 21 -a 0 -x {1.6 0.2 -1 ------- null}
- -t 0.02648 -s 1 -d 0 -p rtProtoDV -e 6 -c 0 -i 33 -a 0 -x {1.6 0.2 -1 ------- null}
h -t 0.02648 -s 1 -d 0 -p rtProtoDV -e 6 -c 0 -i 33 -a 0 -x {1.6 0.2 -1 ------- null}
r -t 0.031384 -s 1 -d 0 -p cbr -e 512 -c 2 -i 12 -a 2 -x {1.4 0.0 0 ------- null}
r -t 0.03148 -s 1 -d 0 -p rtProtoDV -e 6 -c 0 -i 21 -a 0 -x {1.6 0.2 -1 ------- null}
r -t 0.031576 -s 1 -d 0 -p rtProtoDV -e 6 -c 0 -i 33 -a 0 -x {1.6 0.2 -1 ------- null}
r -t 0.036384 -s 0 -d 5 -p cbr -e 512 -c 2 -i 11 -a 2 -x {1.3 5.0 0 ------- null}
+ -t 0.04406133552271 -s 3 -d 2 -p rtProtoDV -e 6 -c 0 -i 41 -a 0 -x {3.2 2.2 -1 ------- null}
- -t 0.04406133552271 -s 3 -d 2 -p rtProtoDV -e 6 -c 0 -i 41 -a 0 -x {3.2 2.2 -1 ------- null}
h -t 0.04406133552271 -s 3 -d 2 -p rtProtoDV -e 6 -c 0 -i 41 -a 0 -x {3.2 2.2 -1 ------- null}
+ -t 0.04406133552271 -s 3 -d 4 -p rtProtoDV -e 6 -c 0 -i 42 -a 0 -x {3.2 4.2 -1 ------- null}
- -t 0.04406133552271 -s 3 -d 4 -p rtProtoDV -e 6 -c 0 -i 42 -a 0 -x {3.2 4.2 -1 ------- null}
h -t 0.04406133552271 -s 3 -d 4 -p rtProtoDV -e 6 -c 0 -i 42 -a 0 -x {3.2 4.2 -1 ------- null}
r -t 0.04915733552271 -s 3 -d 2 -p rtProtoDV -e 6 -c 0 -i 41 -a 0 -x {3.2 2.2 -1 ------- null}
r -t 0.04915733552271 -s 3 -d 4 -p rtProtoDV -e 6 -c 0 -i 42 -a 0 -x {3.2 4.2 -1 ------- null}
+ -t 0.09192 -s 1 -d 2 -p cbr -e 512 -c 2 -i 43 -a 2 -x {1.0 2.0 1 ------- null}
- -t 0.09192 -s 1 -d 2 -p cbr -e 512 -c 2 -i 43 -a 2 -x {1.0 2.0 1 ------- null}
h -t 0.09192 -s 1 -d 2 -p cbr -e 512 -c 2 -i 43 -a 2 -x {1.0 2.0 -1 ------- null}
+ -t 0.09192 -s 1 -d 2 -p cbr -e 512 -c 2 -i 44 -a 2 -x {1.1 3.0 1 ------- null}
+ -t 0.09192 -s 1 -d 0 -p cbr -e 512 -c 2 -i 45 -a 2 -x {1.2 4.0 1 ------- null}
- -t 0.09192 -s 1 -d 0 -p cbr -e 512 -c 2 -i 45 -a 2 -x {1.2 4.0 1 ------- null}
h -t 0.09192 -s 1 -d 0 -p cbr -e 512 -c 2 -i 45 -a 2 -x {1.2 4.0 -1 ------- null}
+ -t 0.09192 -s 1 -d 0 -p cbr -e 512 -c 2 -i 46 -a 2 -x {1.3 5.0 1 ------- null}
+ -t 0.09192 -s 1 -d 0 -p cbr -e 512 -c 2 -i 47 -a 2 -x {1.4 0.0 1 ------- null}
- -t 0.100112 -s 1 -d 2 -p cbr -e 512 -c 2 -i 44 -a 2 -x {1.1 3.0 1 ------- null}
h -t 0.100112 -s 1 -d 2 -p cbr -e 512 -c 2 -i 44 -a 2 -x {1.1 3.0 -1 ------- null}
- -t 0.100112 -s 1 -d 0 -p cbr -e 512 -c 2 -i 46 -a 2 -x {1.3 5.0 1 ------- null}
h -t 0.100112 -s 1 -d 0 -p cbr -e 512 -c 2 -i 46 -a 2 -x {1.3 5.0 -1 ------- null}
r -t 0.105112 -s 1 -d 2 -p cbr -e 512 -c 2 -i 43 -a 2 -x {1.0 2.0 1 ------- null}
r -t 0.105112 -s 1 -d 0 -p cbr -e 512 -c 2 -i 45 -a 2 -x {1.2 4.0 1 ------- null}
+ -t 0.105112 -s 0 -d 5 -p cbr -e 512 -c 2 -i 45 -a 2 -x {1.2 4.0 1 ------- null}
- -t 0.105112 -s 0 -d 5 -p cbr -e 512 -c 2 -i 45 -a 2 -x {1.2 4.0 1 ------- null}
h -t 0.105112 -s 0 -d 5 -p cbr -e 512 -c 2 -i 45 -a 2 -x {1.2 4.0 -1 ------- null}
- -t 0.108304 -s 1 -d 0 -p cbr -e 512 -c 2 -i 47 -a 2 -x {1.4 0.0 1 ------- null}
h -t 0.108304 -s 1 -d 0 -p cbr -e 512 -c 2 -i 47 -a 2 -x {1.4 0.0 -1 ------- null}
r -t 0.113304 -s 1 -d 2 -p cbr -e 512 -c 2 -i 44 -a 2 -x {1.1 3.0 1 ------- null}
+ -t 0.113304 -s 2 -d 3 -p cbr -e 512 -c 2 -i 44 -a 2 -x {1.1 3.0 1 ------- null}
- -t 0.113304 -s 2 -d 3 -p cbr -e 512 -c 2 -i 44 -a 2 -x {1.1 3.0 1 ------- null}
h -t 0.113304 -s 2 -d 3 -p cbr -e 512 -c 2 -i 44 -a 2 -x {1.1 3.0 -1 ------- null}
r -t 0.113304 -s 1 -d 0 -p cbr -e 512 -c 2 -i 46 -a 2 -x {1.3 5.0 1 ------- null}
+ -t 0.113304 -s 0 -d 5 -p cbr -e 512 -c 2 -i 46 -a 2 -x {1.3 5.0 1 ------- null}
- -t 0.113304 -s 0 -d 5 -p cbr -e 512 -c 2 -i 46 -a 2 -x {1.3 5.0 1 ------- null}
h -t 0.113304 -s 0 -d 5 -p cbr -e 512 -c 2 -i 46 -a 2 -x {1.3 5.0 -1 ------- null}
r -t 0.118304 -s 0 -d 5 -p cbr -e 512 -c 2 -i 45 -a 2 -x {1.2 4.0 1 ------- null}
+ -t 0.118304 -s 5 -d 4 -p cbr -e 512 -c 2 -i 45 -a 2 -x {1.2 4.0 1 ------- null}
- -t 0.118304 -s 5 -d 4 -p cbr -e 512 -c 2 -i 45 -a 2 -x {1.2 4.0 1 ------- null}
h -t 0.118304 -s 5 -d 4 -p cbr -e 512 -c 2 -i 45 -a 2 -x {1.2 4.0 -1 ------- null}
r -t 0.121496 -s 1 -d 0 -p cbr -e 512 -c 2 -i 47 -a 2 -x {1.4 0.0 1 ------- null}
r -t 0.126496 -s 2 -d 3 -p cbr -e 512 -c 2 -i 44 -a 2 -x {1.1 3.0 1 ------- null}
r -t 0.126496 -s 0 -d 5 -p cbr -e 512 -c 2 -i 46 -a 2 -x {1.3 5.0 1 ------- null}
r -t 0.131496 -s 5 -d 4 -p cbr -e 512 -c 2 -i 45 -a 2 -x {1.2 4.0 1 ------- null}
+ -t 0.17384 -s 1 -d 2 -p cbr -e 512 -c 2 -i 48 -a 2 -x {1.0 2.0 2 ------- null}
- -t 0.17384 -s 1 -d 2 -p cbr -e 512 -c 2 -i 48 -a 2 -x {1.0 2.0 2 ------- null}
h -t 0.17384 -s 1 -d 2 -p cbr -e 512 -c 2 -i 48 -a 2 -x {1.0 2.0 -1 ------- null}
+ -t 0.17384 -s 1 -d 2 -p cbr -e 512 -c 2 -i 49 -a 2 -x {1.1 3.0 2 ------- null}
+ -t 0.17384 -s 1 -d 0 -p cbr -e 512 -c 2 -i 50 -a 2 -x {1.2 4.0 2 ------- null}
- -t 0.17384 -s 1 -d 0 -p cbr -e 512 -c 2 -i 50 -a 2 -x {1.2 4.0 2 ------- null}
h -t 0.17384 -s 1 -d 0 -p cbr -e 512 -c 2 -i 50 -a 2 -x {1.2 4.0 -1 ------- null}
+ -t 0.17384 -s 1 -d 0 -p cbr -e 512 -c 2 -i 51 -a 2 -x {1.3 5.0 2 ------- null}
+ -t 0.17384 -s 1 -d 0 -p cbr -e 512 -c 2 -i 52 -a 2 -x {1.4 0.0 2 ------- null}
- -t 0.182032 -s 1 -d 2 -p cbr -e 512 -c 2 -i 49 -a 2 -x {1.1 3.0 2 ------- null}
h -t 0.182032 -s 1 -d 2 -p cbr -e 512 -c 2 -i 49 -a 2 -x {1.1 3.0 -1 ------- null}
- -t 0.182032 -s 1 -d 0 -p cbr -e 512 -c 2 -i 51 -a 2 -x {1.3 5.0 2 ------- null}
h -t 0.182032 -s 1 -d 0 -p cbr -e 512 -c 2 -i 51 -a 2 -x {1.3 5.0 -1 ------- null}
r -t 0.187032 -s 1 -d 2 -p cbr -e 512 -c 2 -i 48 -a 2 -x {1.0 2.0 2 ------- null}
r -t 0.187032 -s 1 -d 0 -p cbr -e 512 -c 2 -i 50 -a 2 -x {1.2 4.0 2 ------- null}
+ -t 0.187032 -s 0 -d 5 -p cbr -e 512 -c 2 -i 50 -a 2 -x {1.2 4.0 2 ------- null}
- -t 0.187032 -s 0 -d 5 -p cbr -e 512 -c 2 -i 50 -a 2 -x {1.2 4.0 2 ------- null}
h -t 0.187032 -s 0 -d 5 -p cbr -e 512 -c 2 -i 50 -a 2 -x {1.2 4.0 -1 ------- null}
- -t 0.190224 -s 1 -d 0 -p cbr -e 512 -c 2 -i 52 -a 2 -x {1.4 0.0 2 ------- null}
h -t 0.190224 -s 1 -d 0 -p cbr -e 512 -c 2 -i 52 -a 2 -x {1.4 0.0 -1 ------- null}
r -t 0.195224 -s 1 -d 2 -p cbr -e 512 -c 2 -i 49 -a 2 -x {1.1 3.0 2 ------- null}
+ -t 0.195224 -s 2 -d 3 -p cbr -e 512 -c 2 -i 49 -a 2 -x {1.1 3.0 2 ------- null}
- -t 0.195224 -s 2 -d 3 -p cbr -e 512 -c 2 -i 49 -a 2 -x {1.1 3.0 2 ------- null}
h -t 0.195224 -s 2 -d 3 -p cbr -e 512 -c 2 -i 49 -a 2 -x {1.1 3.0 -1 ------- null}
r -t 0.195224 -s 1 -d 0 -p cbr -e 512 -c 2 -i 51 -a 2 -x {1.3 5.0 2 ------- null}
+ -t 0.195224 -s 0 -d 5 -p cbr -e 512 -c 2 -i 51 -a 2 -x {1.3 5.0 2 ------- null}
- -t 0.195224 -s 0 -d 5 -p cbr -e 512 -c 2 -i 51 -a 2 -x {1.3 5.0 2 ------- null}
h -t 0.195224 -s 0 -d 5 -p cbr -e 512 -c 2 -i 51 -a 2 -x {1.3 5.0 -1 ------- null}
r -t 0.200224 -s 0 -d 5 -p cbr -e 512 -c 2 -i 50 -a 2 -x {1.2 4.0 2 ------- null}
+ -t 0.200224 -s 5 -d 4 -p cbr -e 512 -c 2 -i 50 -a 2 -x {1.2 4.0 2 ------- null}
- -t 0.200224 -s 5 -d 4 -p cbr -e 512 -c 2 -i 50 -a 2 -x {1.2 4.0 2 ------- null}
h -t 0.200224 -s 5 -d 4 -p cbr -e 512 -c 2 -i 50 -a 2 -x {1.2 4.0 -1 ------- null}
r -t 0.203416 -s 1 -d 0 -p cbr -e 512 -c 2 -i 52 -a 2 -x {1.4 0.0 2 ------- null}
r -t 0.208416 -s 2 -d 3 -p cbr -e 512 -c 2 -i 49 -a 2 -x {1.1 3.0 2 ------- null}
r -t 0.208416 -s 0 -d 5 -p cbr -e 512 -c 2 -i 51 -a 2 -x {1.3 5.0 2 ------- null}
r -t 0.213416 -s 5 -d 4 -p cbr -e 512 -c 2 -i 50 -a 2 -x {1.2 4.0 2 ------- null}
+ -t 0.22058669092161 -s 4 -d 3 -p rtProtoDV -e 6 -c 0 -i 53 -a 0 -x {4.2 3.2 -1 ------- null}
- -t 0.22058669092161 -s 4 -d 3 -p rtProtoDV -e 6 -c 0 -i 53 -a 0 -x {4.2 3.2 -1 ------- null}
h -t 0.22058669092161 -s 4 -d 3 -p rtProtoDV -e 6 -c 0 -i 53 -a 0 -x {4.2 3.2 -1 ------- null}
+ -t 0.22058669092161 -s 4 -d 5 -p rtProtoDV -e 6 -c 0 -i 54 -a 0 -x {4.2 5.2 -1 ------- null}
- -t 0.22058669092161 -s 4 -d 5 -p rtProtoDV -e 6 -c 0 -i 54 -a 0 -x {4.2 5.2 -1 ------- null}
h -t 0.22058669092161 -s 4 -d 5 -p rtProtoDV -e 6 -c 0 -i 54 -a 0 -x {4.2 5.2 -1 ------- null}
r -t 0.22568269092161 -s 4 -d 3 -p rtProtoDV -e 6 -c 0 -i 53 -a 0 -x {4.2 3.2 -1 ------- null}
r -t 0.22568269092161 -s 4 -d 5 -p rtProtoDV -e 6 -c 0 -i 54 -a 0 -x {4.2 5.2 -1 ------- null}
+ -t 0.25576 -s 1 -d 2 -p cbr -e 512 -c 2 -i 55 -a 2 -x {1.0 2.0 3 ------- null}
- -t 0.25576 -s 1 -d 2 -p cbr -e 512 -c 2 -i 55 -a 2 -x {1.0 2.0 3 ------- null}
h -t 0.25576 -s 1 -d 2 -p cbr -e 512 -c 2 -i 55 -a 2 -x {1.0 2.0 -1 ------- null}
+ -t 0.25576 -s 1 -d 2 -p cbr -e 512 -c 2 -i 56 -a 2 -x {1.1 3.0 3 ------- null}
+ -t 0.25576 -s 1 -d 0 -p cbr -e 512 -c 2 -i 57 -a 2 -x {1.2 4.0 3 ------- null}
- -t 0.25576 -s 1 -d 0 -p cbr -e 512 -c 2 -i 57 -a 2 -x {1.2 4.0 3 ------- null}
h -t 0.25576 -s 1 -d 0 -p cbr -e 512 -c 2 -i 57 -a 2 -x {1.2 4.0 -1 ------- null}
+ -t 0.25576 -s 1 -d 0 -p cbr -e 512 -c 2 -i 58 -a 2 -x {1.3 5.0 3 ------- null}
+ -t 0.25576 -s 1 -d 0 -p cbr -e 512 -c 2 -i 59 -a 2 -x {1.4 0.0 3 ------- null}
- -t 0.263952 -s 1 -d 2 -p cbr -e 512 -c 2 -i 56 -a 2 -x {1.1 3.0 3 ------- null}
h -t 0.263952 -s 1 -d 2 -p cbr -e 512 -c 2 -i 56 -a 2 -x {1.1 3.0 -1 ------- null}
- -t 0.263952 -s 1 -d 0 -p cbr -e 512 -c 2 -i 58 -a 2 -x {1.3 5.0 3 ------- null}
h -t 0.263952 -s 1 -d 0 -p cbr -e 512 -c 2 -i 58 -a 2 -x {1.3 5.0 -1 ------- null}
r -t 0.268952 -s 1 -d 2 -p cbr -e 512 -c 2 -i 55 -a 2 -x {1.0 2.0 3 ------- null}
r -t 0.268952 -s 1 -d 0 -p cbr -e 512 -c 2 -i 57 -a 2 -x {1.2 4.0 3 ------- null}
+ -t 0.268952 -s 0 -d 5 -p cbr -e 512 -c 2 -i 57 -a 2 -x {1.2 4.0 3 ------- null}
- -t 0.268952 -s 0 -d 5 -p cbr -e 512 -c 2 -i 57 -a 2 -x {1.2 4.0 3 ------- null}
h -t 0.268952 -s 0 -d 5 -p cbr -e 512 -c 2 -i 57 -a 2 -x {1.2 4.0 -1 ------- null}
- -t 0.272144 -s 1 -d 0 -p cbr -e 512 -c 2 -i 59 -a 2 -x {1.4 0.0 3 ------- null}
h -t 0.272144 -s 1 -d 0 -p cbr -e 512 -c 2 -i 59 -a 2 -x {1.4 0.0 -1 ------- null}
r -t 0.277144 -s 1 -d 2 -p cbr -e 512 -c 2 -i 56 -a 2 -x {1.1 3.0 3 ------- null}
+ -t 0.277144 -s 2 -d 3 -p cbr -e 512 -c 2 -i 56 -a 2 -x {1.1 3.0 3 ------- null}
- -t 0.277144 -s 2 -d 3 -p cbr -e 512 -c 2 -i 56 -a 2 -x {1.1 3.0 3 ------- null}
h -t 0.277144 -s 2 -d 3 -p cbr -e 512 -c 2 -i 56 -a 2 -x {1.1 3.0 -1 ------- null}
r -t 0.277144 -s 1 -d 0 -p cbr -e 512 -c 2 -i 58 -a 2 -x {1.3 5.0 3 ------- null}
+ -t 0.277144 -s 0 -d 5 -p cbr -e 512 -c 2 -i 58 -a 2 -x {1.3 5.0 3 ------- null}
- -t 0.277144 -s 0 -d 5 -p cbr -e 512 -c 2 -i 58 -a 2 -x {1.3 5.0 3 ------- null}
h -t 0.277144 -s 0 -d 5 -p cbr -e 512 -c 2 -i 58 -a 2 -x {1.3 5.0 -1 ------- null}
+ -t 0.277940357931862 -s 1 -d 0 -p rtProtoDV -e 6 -c 0 -i 60 -a 0 -x {1.6 0.2 -1 ------- null}
+ -t 0.277940357931862 -s 1 -d 2 -p rtProtoDV -e 6 -c 0 -i 61 -a 0 -x {1.6 2.2 -1 ------- null}
- -t 0.277940357931862 -s 1 -d 2 -p rtProtoDV -e 6 -c 0 -i 61 -a 0 -x {1.6 2.2 -1 ------- null}
h -t 0.277940357931862 -s 1 -d 2 -p rtProtoDV -e 6 -c 0 -i 61 -a 0 -x {1.6 2.2 -1 ------- null}
- -t 0.280336 -s 1 -d 0 -p rtProtoDV -e 6 -c 0 -i 60 -a 0 -x {1.6 0.2 -1 ------- null}
h -t 0.280336 -s 1 -d 0 -p rtProtoDV -e 6 -c 0 -i 60 -a 0 -x {1.6 0.2 -1 ------- null}
r -t 0.282144 -s 0 -d 5 -p cbr -e 512 -c 2 -i 57 -a 2 -x {1.2 4.0 3 ------- null}
+ -t 0.282144 -s 5 -d 4 -p cbr -e 512 -c 2 -i 57 -a 2 -x {1.2 4.0 3 ------- null}
- -t 0.282144 -s 5 -d 4 -p cbr -e 512 -c 2 -i 57 -a 2 -x {1.2 4.0 3 ------- null}
h -t 0.282144 -s 5 -d 4 -p cbr -e 512 -c 2 -i 57 -a 2 -x {1.2 4.0 -1 ------- null}
r -t 0.283036357931862 -s 1 -d 2 -p rtProtoDV -e 6 -c 0 -i 61 -a 0 -x {1.6 2.2 -1 ------- null}
r -t 0.285336 -s 1 -d 0 -p cbr -e 512 -c 2 -i 59 -a 2 -x {1.4 0.0 3 ------- null}
r -t 0.285432 -s 1 -d 0 -p rtProtoDV -e 6 -c 0 -i 60 -a 0 -x {1.6 0.2 -1 ------- null}
r -t 0.290336 -s 2 -d 3 -p cbr -e 512 -c 2 -i 56 -a 2 -x {1.1 3.0 3 ------- null}
r -t 0.290336 -s 0 -d 5 -p cbr -e 512 -c 2 -i 58 -a 2 -x {1.3 5.0 3 ------- null}
r -t 0.295336 -s 5 -d 4 -p cbr -e 512 -c 2 -i 57 -a 2 -x {1.2 4.0 3 ------- null}
+ -t 0.33768 -s 1 -d 2 -p cbr -e 512 -c 2 -i 62 -a 2 -x {1.0 2.0 4 ------- null}
- -t 0.33768 -s 1 -d 2 -p cbr -e 512 -c 2 -i 62 -a 2 -x {1.0 2.0 4 ------- null}
h -t 0.33768 -s 1 -d 2 -p cbr -e 512 -c 2 -i 62 -a 2 -x {1.0 2.0 -1 ------- null}
+ -t 0.33768 -s 1 -d 2 -p cbr -e 512 -c 2 -i 63 -a 2 -x {1.1 3.0 4 ------- null}
+ -t 0.33768 -s 1 -d 0 -p cbr -e 512 -c 2 -i 64 -a 2 -x {1.2 4.0 4 ------- null}
- -t 0.33768 -s 1 -d 0 -p cbr -e 512 -c 2 -i 64 -a 2 -x {1.2 4.0 4 ------- null}
h -t 0.33768 -s 1 -d 0 -p cbr -e 512 -c 2 -i 64 -a 2 -x {1.2 4.0 -1 ------- null}
+ -t 0.33768 -s 1 -d 0 -p cbr -e 512 -c 2 -i 65 -a 2 -x {1.3 5.0 4 ------- null}
+ -t 0.33768 -s 1 -d 0 -p cbr -e 512 -c 2 -i 66 -a 2 -x {1.4 0.0 4 ------- null}
- -t 0.345872 -s 1 -d 2 -p cbr -e 512 -c 2 -i 63 -a 2 -x {1.1 3.0 4 ------- null}
h -t 0.345872 -s 1 -d 2 -p cbr -e 512 -c 2 -i 63 -a 2 -x {1.1 3.0 -1 ------- null}
- -t 0.345872 -s 1 -d 0 -p cbr -e 512 -c 2 -i 65 -a 2 -x {1.3 5.0 4 ------- null}
h -t 0.345872 -s 1 -d 0 -p cbr -e 512 -c 2 -i 65 -a 2 -x {1.3 5.0 -1 ------- null}
r -t 0.350872 -s 1 -d 2 -p cbr -e 512 -c 2 -i 62 -a 2 -x {1.0 2.0 4 ------- null}
r -t 0.350872 -s 1 -d 0 -p cbr -e 512 -c 2 -i 64 -a 2 -x {1.2 4.0 4 ------- null}
+ -t 0.350872 -s 0 -d 5 -p cbr -e 512 -c 2 -i 64 -a 2 -x {1.2 4.0 4 ------- null}
- -t 0.350872 -s 0 -d 5 -p cbr -e 512 -c 2 -i 64 -a 2 -x {1.2 4.0 4 ------- null}
h -t 0.350872 -s 0 -d 5 -p cbr -e 512 -c 2 -i 64 -a 2 -x {1.2 4.0 -1 ------- null}
- -t 0.354064 -s 1 -d 0 -p cbr -e 512 -c 2 -i 66 -a 2 -x {1.4 0.0 4 ------- null}
h -t 0.354064 -s 1 -d 0 -p cbr -e 512 -c 2 -i 66 -a 2 -x {1.4 0.0 -1 ------- null}
r -t 0.359064 -s 1 -d 2 -p cbr -e 512 -c 2 -i 63 -a 2 -x {1.1 3.0 4 ------- null}
+ -t 0.359064 -s 2 -d 3 -p cbr -e 512 -c 2 -i 63 -a 2 -x {1.1 3.0 4 ------- null}
- -t 0.359064 -s 2 -d 3 -p cbr -e 512 -c 2 -i 63 -a 2 -x {1.1 3.0 4 ------- null}
h -t 0.359064 -s 2 -d 3 -p cbr -e 512 -c 2 -i 63 -a 2 -x {1.1 3.0 -1 ------- null}
r -t 0.359064 -s 1 -d 0 -p cbr -e 512 -c 2 -i 65 -a 2 -x {1.3 5.0 4 ------- null}
+ -t 0.359064 -s 0 -d 5 -p cbr -e 512 -c 2 -i 65 -a 2 -x {1.3 5.0 4 ------- null}
- -t 0.359064 -s 0 -d 5 -p cbr -e 512 -c 2 -i 65 -a 2 -x {1.3 5.0 4 ------- null}
h -t 0.359064 -s 0 -d 5 -p cbr -e 512 -c 2 -i 65 -a 2 -x {1.3 5.0 -1 ------- null}
r -t 0.364064 -s 0 -d 5 -p cbr -e 512 -c 2 -i 64 -a 2 -x {1.2 4.0 4 ------- null}
+ -t 0.364064 -s 5 -d 4 -p cbr -e 512 -c 2 -i 64 -a 2 -x {1.2 4.0 4 ------- null}
- -t 0.364064 -s 5 -d 4 -p cbr -e 512 -c 2 -i 64 -a 2 -x {1.2 4.0 4 ------- null}
h -t 0.364064 -s 5 -d 4 -p cbr -e 512 -c 2 -i 64 -a 2 -x {1.2 4.0 -1 ------- null}
r -t 0.367256 -s 1 -d 0 -p cbr -e 512 -c 2 -i 66 -a 2 -x {1.4 0.0 4 ------- null}
r -t 0.372256 -s 2 -d 3 -p cbr -e 512 -c 2 -i 63 -a 2 -x {1.1 3.0 4 ------- null}
r -t 0.372256 -s 0 -d 5 -p cbr -e 512 -c 2 -i 65 -a 2 -x {1.3 5.0 4 ------- null}