n -t * -s 0  -x 0 -y 0 -Z 0 -z 30+i*100  -v circle -c black
n -t * -s 1  -x 0 -y 0 -Z 0 -z 30+i*100  -v circle -c black
n -t * -s 2  -x 0 -y 0 -Z 0 -z 30+i*100  -v circle -c black
n -t * -s 3  -x 0 -y 0 -Z 0 -z 30+i*100  -v circle -c black
n -t * -s 4  -x 0 -y 0 -Z 0 -z 30+i*100  -v circle -c black
n -t * -s 5  -x 0 -y 0 -Z 0 -z 30+i*100  -v circle -c black
V -t * -v 1.0a5 -a 0
W -t * -x 800 -y 800
A -t * -n 1 -p 0 -o 0x7fffffff -c 30 -a 1
A -t * -h 1 -m 1073741823 -s 0
c -t * -i 4 -n brown
c -t * -i 0 -n blue
c -t * -i 5 -n tan
c -t * -i 1 -n red
c -t * -i 6 -n gold
c -t * -i 2 -n chocolate
c -t * -i 7 -n black
c -t * -i 3 -n red
n -t 0.000000 -s 0 -x 0.000000 -y 0.000000 -U 2121.320344 -V 2121.320344 -T 0.047140
n -t 0.000000 -s 1 -x 0.000000 -y 0.000000 -U 2121.320344 -V 2121.320344 -T 0.094281
n -t 0.000000 -s 2 -x 0.000000 -y 0.000000 -U 2496.150883 -V 1664.100589 -T 0.120185
n -t 0.000000 -s 3 -x 0.000000 -y 0.000000 -U 2400.000000 -V 1800.000000 -T 0.166667
n -t 0.000000 -s 4 -x 0.000000 -y 0.000000 -U 2572.478777 -V 1543.487266 -T 0.194365
n -t 0.000000 -s 5 -x 0.000000 -y 0.000000 -U 2496.150883 -V 1664.100589 -T 0.240370
+ -t 1.000000000 -s 0 -d -1 -p IMEP -e 38 -c 2 -a 0 -i 2 -k RTR 
- -t 1.000000000 -s 0 -d -1 -p IMEP -e 38 -c 2 -a 0 -i 2 -k RTR
h -t 1.000000000 -s 0 -d -1 -p IMEP -e 38 -c 2 -a 0 -i 2 -k RTR
+ -t 1.000275000 -s 0 -d -1 -p IMEP -e 96 -c 2 -a 0 -i 2 -k MAC 
- -t 1.000275000 -s 0 -d -1 -p IMEP -e 96 -c 2 -a 0 -i 2 -k MAC
h -t 1.000275000 -s 0 -d -1 -p IMEP -e 96 -c 2 -a 0 -i 2 -k MAC
r -t 1.001043471 -s 1 -d -1 -p IMEP -e 38 -c 2 -a 0 -i 2 -k MAC
r -t 1.001043745 -s 2 -d -1 -p IMEP -e 38 -c 2 -a 0 -i 2 -k MAC
+ -t 1.100000000 -s 1 -d -1 -p IMEP -e 34 -c 2 -a 0 -i 11 -k RTR 
- -t 1.100000000 -s 1 -d -1 -p IMEP -e 34 -c 2 -a 0 -i 11 -k RTR
h -t 1.100000000 -s 1 -d -1 -p IMEP -e 34 -c 2 -a 0 -i 11 -k RTR
+ -t 1.100115000 -s 1 -d -1 -p IMEP -e 92 -c 2 -a 0 -i 11 -k MAC 
- -t 1.100115000 -s 1 -d -1 -p IMEP -e 92 -c 2 -a 0 -i 11 -k MAC
h -t 1.100115000 -s 1 -d -1 -p IMEP -e 92 -c 2 -a 0 -i 11 -k MAC
r -t 1.100851333 -s 2 -d -1 -p IMEP -e 34 -c 2 -a 0 -i 11 -k MAC
r -t 1.100851471 -s 0 -d -1 -p IMEP -e 34 -c 2 -a 0 -i 11 -k MAC
r -t 1.100851745 -s 3 -d -1 -p IMEP -e 34 -c 2 -a 0 -i 11 -k MAC
+ -t 1.102014554 -s 0 -d -1 -p IMEP -e 52 -c 2 -a 0 -i 17 -k RTR 
- -t 1.102014554 -s 0 -d -1 -p IMEP -e 52 -c 2 -a 0 -i 17 -k RTR
h -t 1.102014554 -s 0 -d -1 -p IMEP -e 52 -c 2 -a 0 -i 17 -k RTR
+ -t 1.102249554 -s 0 -d -1 -p IMEP -e 110 -c 2 -a 0 -i 17 -k MAC 
- -t 1.102249554 -s 0 -d -1 -p IMEP -e 110 -c 2 -a 0 -i 17 -k MAC
h -t 1.102249554 -s 0 -d -1 -p IMEP -e 110 -c 2 -a 0 -i 17 -k MAC
r -t 1.103130025 -s 1 -d -1 -p IMEP -e 52 -c 2 -a 0 -i 17 -k MAC
r -t 1.103130299 -s 2 -d -1 -p IMEP -e 52 -c 2 -a 0 -i 17 -k MAC
+ -t 1.104096414 -s 1 -d -1 -p IMEP -e 52 -c 2 -a 0 -i 19 -k RTR 
- -t 1.104096414 -s 1 -d -1 -p IMEP -e 52 -c 2 -a 0 -i 19 -k RTR
h -t 1.104096414 -s 1 -d -1 -p IMEP -e 52 -c 2 -a 0 -i 19 -k RTR
+ -t 1.104491414 -s 1 -d -1 -p IMEP -e 110 -c 2 -a 0 -i 19 -k MAC 
- -t 1.104491414 -s 1 -d -1 -p IMEP -e 110 -c 2 -a 0 -i 19 -k MAC
h -t 1.104491414 -s 1 -d -1 -p IMEP -e 110 -c 2 -a 0 -i 19 -k MAC
r -t 1.105371747 -s 2 -d -1 -p IMEP -e 52 -c 2 -a 0 -i 19 -k MAC
r -t 1.105371885 -s 0 -d -1 -p IMEP -e 52 -c 2 -a 0 -i 19 -k MAC
r -t 1.105372159 -s 3 -d -1 -p IMEP -e 52 -c 2 -a 0 -i 19 -k MAC
+ -t 1.181976651 -s 2 -d -1 -p IMEP -e 38 -c 2 -a 0 -i 27 -k RTR 
- -t 1.181976651 -s 2 -d -1 -p IMEP -e 38 -c 2 -a 0 -i 27 -k RTR
h -t 1.181976651 -s 2 -d -1 -p IMEP -e 38 -c 2 -a 0 -i 27 -k RTR
+ -t 1.182071651 -s 2 -d -1 -p IMEP -e 96 -c 2 -a 0 -i 27 -k MAC 
- -t 1.182071651 -s 2 -d -1 -p IMEP -e 96 -c 2 -a 0 -i 27 -k MAC
h -t 1.182071651 -s 2 -d -1 -p IMEP -e 96 -c 2 -a 0 -i 27 -k MAC
r -t 1.182839984 -s 1 -d -1 -p IMEP -e 38 -c 2 -a 0 -i 27 -k MAC
r -t 1.182840123 -s 3 -d -1 -p IMEP -e 38 -c 2 -a 0 -i 27 -k MAC
r -t 1.182840396 -s 0 -d -1 -p IMEP -e 38 -c 2 -a 0 -i 27 -k MAC
r -t 1.182840396 -s 4 -d -1 -p IMEP -e 38 -c 2 -a 0 -i 27 -k MAC
+ -t 1.189788053 -s 1 -d -1 -p IMEP -e 66 -c 2 -a 0 -i 35 -k RTR 
- -t 1.189788053 -s 1 -d -1 -p IMEP -e 66 -c 2 -a 0 -i 35 -k RTR
h -t 1.189788053 -s 1 -d -1 -p IMEP -e 66 -c 2 -a 0 -i 35 -k RTR
+ -t 1.190223053 -s 1 -d -1 -p IMEP -e 124 -c 2 -a 0 -i 35 -k MAC 
- -t 1.190223053 -s 1 -d -1 -p IMEP -e 124 -c 2 -a 0 -i 35 -k MAC
h -t 1.190223053 -s 1 -d -1 -p IMEP -e 124 -c 2 -a 0 -i 35 -k MAC
r -t 1.191215386 -s 2 -d -1 -p IMEP -e 66 -c 2 -a 0 -i 35 -k MAC
r -t 1.191215524 -s 0 -d -1 -p IMEP -e 66 -c 2 -a 0 -i 35 -k MAC
r -t 1.191215798 -s 3 -d -1 -p IMEP -e 66 -c 2 -a 0 -i 35 -k MAC
+ -t 1.191263649 -s 0 -d -1 -p IMEP -e 98 -c 2 -a 0 -i 41 -k RTR 
- -t 1.191263649 -s 0 -d -1 -p IMEP -e 98 -c 2 -a 0 -i 41 -k RTR
h -t 1.191263649 -s 0 -d -1 -p IMEP -e 98 -c 2 -a 0 -i 41 -k RTR
+ -t 1.191618649 -s 0 -d -1 -p IMEP -e 156 -c 2 -a 0 -i 41 -k MAC 
- -t 1.191618649 -s 0 -d -1 -p IMEP -e 156 -c 2 -a 0 -i 41 -k MAC
h -t 1.191618649 -s 0 -d -1 -p IMEP -e 156 -c 2 -a 0 -i 41 -k MAC
r -t 1.192867120 -s 1 -d -1 -p IMEP -e 98 -c 2 -a 0 -i 41 -k MAC
r -t 1.192867394 -s 2 -d -1 -p IMEP -e 98 -c 2 -a 0 -i 41 -k MAC
+ -t 1.194765772 -s 1 -d -1 -p IMEP -e 46 -c 2 -a 0 -i 46 -k RTR 
- -t 1.194765772 -s 1 -d -1 -p IMEP -e 46 -c 2 -a 0 -i 46 -k RTR
h -t 1.194765772 -s 1 -d -1 -p IMEP -e 46 -c 2 -a 0 -i 46 -k RTR
+ -t 1.195420772 -s 1 -d -1 -p IMEP -e 104 -c 2 -a 0 -i 46 -k MAC 
- -t 1.195420772 -s 1 -d -1 -p IMEP -e 104 -c 2 -a 0 -i 46 -k MAC
h -t 1.195420772 -s 1 -d -1 -p IMEP -e 104 -c 2 -a 0 -i 46 -k MAC
r -t 1.196253106 -s 2 -d -1 -p IMEP -e 46 -c 2 -a 0 -i 46 -k MAC
r -t 1.196253244 -s 0 -d -1 -p IMEP -e 46 -c 2 -a 0 -i 46 -k MAC
r -t 1.196253518 -s 3 -d -1 -p IMEP -e 46 -c 2 -a 0 -i 46 -k MAC
+ -t 1.198013876 -s 2 -d -1 -p IMEP -e 86 -c 2 -a 0 -i 49 -k RTR 
- -t 1.198013876 -s 2 -d -1 -p IMEP -e 86 -c 2 -a 0 -i 49 -k RTR
h -t 1.198013876 -s 2 -d -1 -p IMEP -e 86 -c 2 -a 0 -i 49 -k RTR
+ -t 1.198428876 -s 2 -d -1 -p IMEP -e 144 -c 2 -a 0 -i 49 -k MAC 
- -t 1.198428876 -s 2 -d -1 -p IMEP -e 144 -c 2 -a 0 -i 49 -k MAC
h -t 1.198428876 -s 2 -d -1 -p IMEP -e 144 -c 2 -a 0 -i 49 -k MAC
r -t 1.199581209 -s 1 -d -1 -p IMEP -e 86 -c 2 -a 0 -i 49 -k MAC
r -t 1.199581347 -s 3 -d -1 -p IMEP -e 86 -c 2 -a 0 -i 49 -k MAC
r -t 1.199581621 -s 0 -d -1 -p IMEP -e 86 -c 2 -a 0 -i 49 -k MAC
r -t 1.199581621 -s 4 -d -1 -p IMEP -e 86 -c 2 -a 0 -i 49 -k MAC
+ -t 1.300000000 -s 3 -d -1 -p IMEP -e 38 -c 2 -a 0 -i 60 -k RTR 
- -t 1.300000000 -s 3 -d -1 -p IMEP -e 38 -c 2 -a 0 -i 60 -k RTR
h -t 1.300000000 -s 3 -d -1 -p IMEP -e 38 -c 2 -a 0 -i 60 -k RTR
+ -t 1.300355000 -s 3 -d -1 -p IMEP -e 96 -c 2 -a 0 -i 60 -k MAC 
- -t 1.300355000 -s 3 -d -1 -p IMEP -e 96 -c 2 -a 0 -i 60 -k MAC
h -t 1.300355000 -s 3 -d -1 -p IMEP -e 96 -c 2 -a 0 -i 60 -k MAC
r -t 1.301123333 -s 4 -d -1 -p IMEP -e 38 -c 2 -a 0 -i 60 -k MAC
r -t 1.301123471 -s 2 -d -1 -p IMEP -e 38 -c 2 -a 0 -i 60 -k MAC
r -t 1.301123745 -s 1 -d -1 -p IMEP -e 38 -c 2 -a 0 -i 60 -k MAC
r -t 1.301123745 -s 5 -d -1 -p IMEP -e 38 -c 2 -a 0 -i 60 -k MAC
+ -t 1.301424320 -s 1 -d -1 -p IMEP -e 80 -c 2 -a 0 -i 73 -k RTR 
- -t 1.301424320 -s 1 -d -1 -p IMEP -e 80 -c 2 -a 0 -i 73 -k RTR
h -t 1.301424320 -s 1 -d -1 -p IMEP -e 80 -c 2 -a 0 -i 73 -k RTR
+ -t 1.301799320 -s 1 -d -1 -p IMEP -e 138 -c 2 -a 0 -i 73 -k MAC 
- -t 1.301799320 -s 1 -d -1 -p IMEP -e 138 -c 2 -a 0 -i 73 -k MAC
h -t 1.301799320 -s 1 -d -1 -p IMEP -e 138 -c 2 -a 0 -i 73 -k MAC
r -t 1.302903653 -s 2 -d -1 -p IMEP -e 80 -c 2 -a 0 -i 73 -k MAC
r -t 1.302903791 -s 0 -d -1 -p IMEP -e 80 -c 2 -a 0 -i 73 -k MAC
r -t 1.302904065 -s 3 -d -1 -p IMEP -e 80 -c 2 -a 0 -i 73 -k MAC
+ -t 1.303766713 -s 2 -d -1 -p IMEP -e 98 -c 2 -a 0 -i 80 -k RTR 
- -t 1.303766713 -s 2 -d -1 -p IMEP -e 98 -c 2 -a 0 -i 80 -k RTR
h -t 1.303766713 -s 2 -d -1 -p IMEP -e 98 -c 2 -a 0 -i 80 -k RTR
+ -t 1.303842635 -s 3 -d -1 -p IMEP -e 76 -c 2 -a 0 -i 81 -k RTR 
- -t 1.303842635 -s 3 -d -1 -p IMEP -e 76 -c 2 -a 0 -i 81 -k RTR
h -t 1.303842635 -s 3 -d -1 -p IMEP -e 76 -c 2 -a 0 -i 81 -k RTR
+ -t 1.303881713 -s 2 -d -1 -p IMEP -e 156 -c 2 -a 0 -i 80 -k MAC 
- -t 1.303881713 -s 2 -d -1 -p IMEP -e 156 -c 2 -a 0 -i 80 -k MAC
h -t 1.303881713 -s 2 -d -1 -p IMEP -e 156 -c 2 -a 0 -i 80 -k MAC
r -t 1.305130046 -s 1 -d -1 -p IMEP -e 98 -c 2 -a 0 -i 80 -k MAC
r -t 1.305130184 -s 3 -d -1 -p IMEP -e 98 -c 2 -a 0 -i 80 -k MAC
r -t 1.305130458 -s 0 -d -1 -p IMEP -e 98 -c 2 -a 0 -i 80 -k MAC
r -t 1.305130458 -s 4 -d -1 -p IMEP -e 98 -c 2 -a 0 -i 80 -k MAC
+ -t 1.305640184 -s 3 -d -1 -p IMEP -e 134 -c 2 -a 0 -i 81 -k MAC 
- -t 1.305640184 -s 3 -d -1 -p IMEP -e 134 -c 2 -a 0 -i 81 -k MAC
h -t 1.305640184 -s 3 -d -1 -p IMEP -e 134 -c 2 -a 0 -i 81 -k MAC
+ -t 1.306037186 -s 3 -d -1 -p IMEP -e 76 -c 2 -a 0 -i 88 -k RTR 
- -t 1.306037186 -s 3 -d -1 -p IMEP -e 76 -c 2 -a 0 -i 88 -k RTR
h -t 1.306037186 -s 3 -d -1 -p IMEP -e 76 -c 2 -a 0 -i 88 -k RTR
r -t 1.306712518 -s 4 -d -1 -p IMEP -e 76 -c 2 -a 0 -i 81 -k MAC
r -t 1.306712656 -s 2 -d -1 -p IMEP -e 76 -c 2 -a 0 -i 81 -k MAC
r -t 1.306712930 -s 1 -d -1 -p IMEP -e 76 -c 2 -a 0 -i 81 -k MAC
r -t 1.306712930 -s 5 -d -1 -p IMEP -e 76 -c 2 -a 0 -i 81 -k MAC
+ -t 1.306822184 -s 3 -d -1 -p IMEP -e 134 -c 2 -a 0 -i 88 -k MAC 
- -t 1.306822184 -s 3 -d -1 -p IMEP -e 134 -c 2 -a 0 -i 88 -k MAC
h -t 1.306822184 -s 3 -d -1 -p IMEP -e 134 -c 2 -a 0 -i 88 -k MAC
r -t 1.307894518 -s 4 -d -1 -p IMEP -e 76 -c 2 -a 0 -i 88 -k MAC
r -t 1.307894656 -s 2 -d -1 -p IMEP -e 76 -c 2 -a 0 -i 88 -k MAC
r -t 1.307894930 -s 1 -d -1 -p IMEP -e 76 -c 2 -a 0 -i 88 -k MAC
r -t 1.307894930 -s 5 -d -1 -p IMEP -e 76 -c 2 -a 0 -i 88 -k MAC
+ -t 1.309878164 -s 0 -d -1 -p IMEP -e 84 -c 2 -a 0 -i 89 -k RTR 
- -t 1.309878164 -s 0 -d -1 -p IMEP -e 84 -c 2 -a 0 -i 89 -k RTR
h -t 1.309878164 -s 0 -d -1 -p IMEP -e 84 -c 2 -a 0 -i 89 -k RTR
+ -t 1.310484032 -s 1 -d -1 -p IMEP -e 50 -c 2 -a 0 -i 90 -k RTR 
- -t 1.310484032 -s 1 -d -1 -p IMEP -e 50 -c 2 -a 0 -i 90 -k RTR
h -t 1.310484032 -s 1 -d -1 -p IMEP -e 50 -c 2 -a 0 -i 90 -k RTR
+ -t 1.310553164 -s 0 -d -1 -p IMEP -e 142 -c 2 -a 0 -i 89 -k MAC 
- -t 1.310553164 -s 0 -d -1 -p IMEP -e 142 -c 2 -a 0 -i 89 -k MAC
h -t 1.310553164 -s 0 -d -1 -p IMEP -e 142 -c 2 -a 0 -i 89 -k MAC
r -t 1.311689636 -s 1 -d -1 -p IMEP -e 84 -c 2 -a 0 -i 89 -k MAC
r -t 1.311689909 -s 2 -d -1 -p IMEP -e 84 -c 2 -a 0 -i 89 -k MAC
+ -t 1.311859636 -s 1 -d -1 -p IMEP -e 108 -c 2 -a 0 -i 90 -k MAC 
- -t 1.311859636 -s 1 -d -1 -p IMEP -e 108 -c 2 -a 0 -i 90 -k MAC
h -t 1.311859636 -s 1 -d -1 -p IMEP -e 108 -c 2 -a 0 -i 90 -k MAC
r -t 1.312723969 -s 2 -d -1 -p IMEP -e 50 -c 2 -a 0 -i 90 -k MAC
r -t 1.312724107 -s 0 -d -1 -p IMEP -e 50 -c 2 -a 0 -i 90 -k MAC
r -t 1.312724381 -s 3 -d -1 -p IMEP -e 50 -c 2 -a 0 -i 90 -k MAC
+ -t 1.354581342 -s 4 -d -1 -p IMEP -e 38 -c 2 -a 0 -i 95 -k RTR 
- -t 1.354581342 -s 4 -d -1 -p IMEP -e 38 -c 2 -a 0 -i 95 -k RTR
h -t 1.354581342 -s 4 -d -1 -p IMEP -e 38 -c 2 -a 0 -i 95 -k RTR
+ -t 1.355256342 -s 4 -d -1 -p IMEP -e 96 -c 2 -a 0 -i 95 -k MAC 
- -t 1.355256342 -s 4 -d -1 -p IMEP -e 96 -c 2 -a 0 -i 95 -k MAC
h -t 1.355256342 -s 4 -d -1 -p IMEP -e 96 -c 2 -a 0 -i 95 -k MAC
r -t 1.356024676 -s 3 -d -1 -p IMEP -e 38 -c 2 -a 0 -i 95 -k MAC
r -t 1.356024814 -s 5 -d -1 -p IMEP -e 38 -c 2 -a 0 -i 95 -k MAC
r -t 1.356025088 -s 2 -d -1 -p IMEP -e 38 -c 2 -a 0 -i 95 -k MAC
+ -t 1.356051833 -s 2 -d -1 -p IMEP -e 94 -c 2 -a 0 -i 107 -k RTR 
- -t 1.356051833 -s 2 -d -1 -p IMEP -e 94 -c 2 -a 0 -i 107 -k RTR
h -t 1.356051833 -s 2 -d -1 -p IMEP -e 94 -c 2 -a 0 -i 107 -k RTR
+ -t 1.356566833 -s 2 -d -1 -p IMEP -e 152 -c 2 -a 0 -i 107 -k MAC 
- -t 1.356566833 -s 2 -d -1 -p IMEP -e 152 -c 2 -a 0 -i 107 -k MAC
h -t 1.356566833 -s 2 -d -1 -p IMEP -e 152 -c 2 -a 0 -i 107 -k MAC
+ -t 1.357549560 -s 3 -d -1 -p IMEP -e 90 -c 2 -a 0 -i 108 -k RTR 
- -t 1.357549560 -s 3 -d -1 -p IMEP -e 90 -c 2 -a 0 -i 108 -k RTR
h -t 1.357549560 -s 3 -d -1 -p IMEP -e 90 -c 2 -a 0 -i 108 -k RTR
r -t 1.357783167 -s 1 -d -1 -p IMEP -e 94 -c 2 -a 0 -i 107 -k MAC
r -t 1.357783305 -s 3 -d -1 -p IMEP -e 94 -c 2 -a 0 -i 107 -k MAC
r -t 1.357783579 -s 0 -d -1 -p IMEP -e 94 -c 2 -a 0 -i 107 -k MAC
r -t 1.357783579 -s 4 -d -1 -p IMEP -e 94 -c 2 -a 0 -i 107 -k MAC
+ -t 1.357841807 -s 3 -d -1 -p IMEP -e 50 -c 2 -a 0 -i 117 -k RTR 
- -t 1.357841807 -s 3 -d -1 -p IMEP -e 50 -c 2 -a 0 -i 117 -k RTR
h -t 1.357841807 -s 3 -d -1 -p IMEP -e 50 -c 2 -a 0 -i 117 -k RTR
+ -t 1.358233305 -s 3 -d -1 -p IMEP -e 148 -c 2 -a 0 -i 108 -k MAC 
- -t 1.358233305 -s 3 -d -1 -p IMEP -e 148 -c 2 -a 0 -i 108 -k MAC
h -t 1.358233305 -s 3 -d -1 -p IMEP -e 148 -c 2 -a 0 -i 108 -k MAC
r -t 1.359417638 -s 4 -d -1 -p IMEP -e 90 -c 2 -a 0 -i 108 -k MAC
r -t 1.359417776 -s 2 -d -1 -p IMEP -e 90 -c 2 -a 0 -i 108 -k MAC
r -t 1.359418050 -s 1 -d -1 -p IMEP -e 90 -c 2 -a 0 -i 108 -k MAC
r -t 1.359418050 -s 5 -d -1 -p IMEP -e 90 -c 2 -a 0 -i 108 -k MAC
+ -t 1.359520769 -s 4 -d -1 -p IMEP -e 126 -c 2 -a 0 -i 124 -k RTR 
- -t 1.359520769 -s 4 -d -1 -p IMEP -e 126 -c 2 -a 0 -i 124 -k RTR
h -t 1.359520769 -s 4 -d -1 -p IMEP -e 126 -c 2 -a 0 -i 124 -k RTR
+ -t 1.359655769 -s 4 -d -1 -p IMEP -e 184 -c 2 -a 0 -i 124 -k MAC 
- -t 1.359655769 -s 4 -d -1 -p IMEP -e 184 -c 2 -a 0 -i 124 -k MAC
h -t 1.359655769 -s 4 -d -1 -p IMEP -e 184 -c 2 -a 0 -i 124 -k MAC
+ -t 1.360858056 -s 1 -d -1 -p IMEP -e 50 -c 2 -a 0 -i 126 -k RTR 
- -t 1.360858056 -s 1 -d -1 -p IMEP -e 50 -c 2 -a 0 -i 126 -k RTR
h -t 1.360858056 -s 1 -d -1 -p IMEP -e 50 -c 2 -a 0 -i 126 -k RTR
+ -t 1.361025927 -s 0 -d -1 -p IMEP -e 68 -c 2 -a 0 -i 127 -k RTR 
- -t 1.361025927 -s 0 -d -1 -p IMEP -e 68 -c 2 -a 0 -i 127 -k RTR
h -t 1.361025927 -s 0 -d -1 -p IMEP -e 68 -c 2 -a 0 -i 127 -k RTR
r -t 1.361128102 -s 3 -d -1 -p IMEP -e 126 -c 2 -a 0 -i 124 -k MAC
r -t 1.361128240 -s 5 -d -1 -p IMEP -e 126 -c 2 -a 0 -i 124 -k MAC
r -t 1.361128514 -s 2 -d -1 -p IMEP -e 126 -c 2 -a 0 -i 124 -k MAC
+ -t 1.361498102 -s 3 -d -1 -p IMEP -e 108 -c 2 -a 0 -i 117 -k MAC 
- -t 1.361498102 -s 3 -d -1 -p IMEP -e 108 -c 2 -a 0 -i 117 -k MAC
h -t 1.361498102 -s 3 -d -1 -p IMEP -e 108 -c 2 -a 0 -i 117 -k MAC
+ -t 1.361518927 -s 2 -d -1 -p IMEP -e 54 -c 2 -a 0 -i 128 -k RTR 
- -t 1.361518927 -s 2 -d -1 -p IMEP -e 54 -c 2 -a 0 -i 128 -k RTR
h -t 1.361518927 -s 2 -d -1 -p IMEP -e 54 -c 2 -a 0 -i 128 -k RTR
r -t 1.362362435 -s 4 -d -1 -p IMEP -e 50 -c 2 -a 0 -i 117 -k MAC
r -t 1.362362573 -s 2 -d -1 -p IMEP -e 50 -c 2 -a 0 -i 117 -k MAC
r -t 1.362362847 -s 1 -d -1 -p IMEP -e 50 -c 2 -a 0 -i 117 -k MAC
r -t 1.362362847 -s 5 -d -1 -p IMEP -e 50 -c 2 -a 0 -i 117 -k MAC
+ -t 1.362432573 -s 2 -d -1 -p IMEP -e 112 -c 2 -a 0 -i 128 -k MAC 
- -t 1.362432573 -s 2 -d -1 -p IMEP -e 112 -c 2 -a 0 -i 128 -k MAC
h -t 1.362432573 -s 2 -d -1 -p IMEP -e 112 -c 2 -a 0 -i 128 -k MAC
r -t 1.363328907 -s 1 -d -1 -p IMEP -e 54 -c 2 -a 0 -i 128 -k MAC
r -t 1.363329045 -s 3 -d -1 -p IMEP -e 54 -c 2 -a 0 -i 128 -k MAC
r -t 1.363329319 -s 0 -d -1 -p IMEP -e 54 -c 2 -a 0 -i 128 -k MAC
r -t 1.363329319 -s 4 -d -1 -p IMEP -e 54 -c 2 -a 0 -i 128 -k MAC
+ -t 1.363878907 -s 1 -d -1 -p IMEP -e 108 -c 2 -a 0 -i 126 -k MAC 
- -t 1.363878907 -s 1 -d -1 -p IMEP -e 108 -c 2 -a 0 -i 126 -k MAC
h -t 1.363878907 -s 1 -d -1 -p IMEP -e 108 -c 2 -a 0 -i 126 -k MAC
r -t 1.364743240 -s 2 -d -1 -p IMEP -e 50 -c 2 -a 0 -i 126 -k MAC
r -t 1.364743378 -s 0 -d -1 -p IMEP -e 50 -c 2 -a 0 -i 126 -k MAC
r -t 1.364743652 -s 3 -d -1 -p IMEP -e 50 -c 2 -a 0 -i 126 -k MAC
+ -t 1.364893378 -s 0 -d -1 -p IMEP -e 126 -c 2 -a 0 -i 127 -k MAC 
- -t 1.364893378 -s 0 -d -1 -p IMEP -e 126 -c 2 -a 0 -i 127 -k MAC
h -t 1.364893378 -s 0 -d -1 -p IMEP -e 126 -c 2 -a 0 -i 127 -k MAC
r -t 1.365901850 -s 1 -d -1 -p IMEP -e 68 -c 2 -a 0 -i 127 -k MAC
r -t 1.365902123 -s 2 -d -1 -p IMEP -e 68 -c 2 -a 0 -i 127 -k MAC
+ -t 1.500000000 -s 5 -d -1 -p IMEP -e 38 -c 2 -a 0 -i 142 -k RTR 
- -t 1.500000000 -s 5 -d -1 -p IMEP -e 38 -c 2 -a 0 -i 142 -k RTR
h -t 1.500000000 -s 5 -d -1 -p IMEP -e 38 -c 2 -a 0 -i 142 -k RTR
+ -t 1.500455000 -s 5 -d -1 -p IMEP -e 96 -c 2 -a 0 -i 142 -k MAC 
- -t 1.500455000 -s 5 -d -1 -p IMEP -e 96 -c 2 -a 0 -i 142 -k MAC
h -t 1.500455000 -s 5 -d -1 -p IMEP -e 96 -c 2 -a 0 -i 142 -k MAC
r -t 1.501223471 -s 4 -d -1 -p IMEP -e 38 -c 2 -a 0 -i 142 -k MAC
r -t 1.501223745 -s 3 -d -1 -p IMEP -e 38 -c 2 -a 0 -i 142 -k MAC
+ -t 1.501835725 -s 3 -d -1 -p IMEP -e 104 -c 2 -a 0 -i 157 -k RTR 
- -t 1.501835725 -s 3 -d -1 -p IMEP -e 104 -c 2 -a 0 -i 157 -k RTR
h -t 1.501835725 -s 3 -d -1 -p IMEP -e 104 -c 2 -a 0 -i 157 -k RTR
+ -t 1.501893362 -s 4 -d -1 -p IMEP -e 108 -c 2 -a 0 -i 158 -k RTR 
- -t 1.501893362 -s 4 -d -1 -p IMEP -e 108 -c 2 -a 0 -i 158 -k RTR
h -t 1.501893362 -s 4 -d -1 -p IMEP -e 108 -c 2 -a 0 -i 158 -k RTR
+ -t 1.502188362 -s 4 -d -1 -p IMEP -e 166 -c 2 -a 0 -i 158 -k MAC 
- -t 1.502188362 -s 4 -d -1 -p IMEP -e 166 -c 2 -a 0 -i 158 -k MAC
h -t 1.502188362 -s 4 -d -1 -p IMEP -e 166 -c 2 -a 0 -i 158 -k MAC
r -t 1.503516695 -s 3 -d -1 -p IMEP -e 108 -c 2 -a 0 -i 158 -k MAC
r -t 1.503516833 -s 5 -d -1 -p IMEP -e 108 -c 2 -a 0 -i 158 -k MAC
r -t 1.503517107 -s 2 -d -1 -p IMEP -e 108 -c 2 -a 0 -i 158 -k MAC
+ -t 1.503886695 -s 3 -d -1 -p IMEP -e 162 -c 2 -a 0 -i 157 -k MAC 
- -t 1.503886695 -s 3 -d -1 -p IMEP -e 162 -c 2 -a 0 -i 157 -k MAC
h -t 1.503886695 -s 3 -d -1 -p IMEP -e 162 -c 2 -a 0 -i 157 -k MAC
r -t 1.505183028 -s 4 -d -1 -p IMEP -e 104 -c 2 -a 0 -i 157 -k MAC
r -t 1.505183166 -s 2 -d -1 -p IMEP -e 104 -c 2 -a 0 -i 157 -k MAC
r -t 1.505183440 -s 1 -d -1 -p IMEP -e 104 -c 2 -a 0 -i 157 -k MAC
r -t 1.505183440 -s 5 -d -1 -p IMEP -e 104 -c 2 -a 0 -i 157 -k MAC
+ -t 1.505831602 -s 5 -d -1 -p IMEP -e 140 -c 2 -a 0 -i 172 -k RTR 
- -t 1.505831602 -s 5 -d -1 -p IMEP -e 140 -c 2 -a 0 -i 172 -k RTR
h -t 1.505831602 -s 5 -d -1 -p IMEP -e 140 -c 2 -a 0 -i 172 -k RTR
+ -t 1.506506602 -s 5 -d -1 -p IMEP -e 198 -c 2 -a 0 -i 172 -k MAC 
- -t 1.506506602 -s 5 -d -1 -p IMEP -e 198 -c 2 -a 0 -i 172 -k MAC
h -t 1.506506602 -s 5 -d -1 -p IMEP -e 198 -c 2 -a 0 -i 172 -k MAC
+ -t 1.506726379 -s 1 -d -1 -p IMEP -e 50 -c 2 -a 0 -i 173 -k RTR 
- -t 1.506726379 -s 1 -d -1 -p IMEP -e 50 -c 2 -a 0 -i 173 -k RTR
h -t 1.506726379 -s 1 -d -1 -p IMEP -e 50 -c 2 -a 0 -i 173 -k RTR
+ -t 1.507875798 -s 3 -d -1 -p IMEP -e 54 -c 2 -a 0 -i 174 -k RTR 
- -t 1.507875798 -s 3 -d -1 -p IMEP -e 54 -c 2 -a 0 -i 174 -k RTR
h -t 1.507875798 -s 3 -d -1 -p IMEP -e 54 -c 2 -a 0 -i 174 -k RTR
r -t 1.508091073 -s 4 -d -1 -p IMEP -e 140 -c 2 -a 0 -i 172 -k MAC
r -t 1.508091347 -s 3 -d -1 -p IMEP -e 140 -c 2 -a 0 -i 172 -k MAC
+ -t 1.508646093 -s 1 -d -1 -p IMEP -e 108 -c 2 -a 0 -i 173 -k MAC 
- -t 1.508646093 -s 1 -d -1 -p IMEP -e 108 -c 2 -a 0 -i 173 -k MAC
h -t 1.508646093 -s 1 -d -1 -p IMEP -e 108 -c 2 -a 0 -i 173 -k MAC
r -t 1.509510426 -s 2 -d -1 -p IMEP -e 50 -c 2 -a 0 -i 173 -k MAC
r -t 1.509510564 -s 0 -d -1 -p IMEP -e 50 -c 2 -a 0 -i 173 -k MAC
r -t 1.509510838 -s 3 -d -1 -p IMEP -e 50 -c 2 -a 0 -i 173 -k MAC
+ -t 1.509600838 -s 3 -d -1 -p IMEP -e 112 -c 2 -a 0 -i 174 -k MAC 
- -t 1.509600838 -s 3 -d -1 -p IMEP -e 112 -c 2 -a 0 -i 174 -k MAC
h -t 1.509600838 -s 3 -d -1 -p IMEP -e 112 -c 2 -a 0 -i 174 -k MAC
r -t 1.510497171 -s 4 -d -1 -p IMEP -e 54 -c 2 -a 0 -i 174 -k MAC
r -t 1.510497309 -s 2 -d -1 -p IMEP -e 54 -c 2 -a 0 -i 174 -k MAC
r -t 1.510497583 -s 1 -d -1 -p IMEP -e 54 -c 2 -a 0 -i 174 -k MAC
r -t 1.510497583 -s 5 -d -1 -p IMEP -e 54 -c 2 -a 0 -i 174 -k MAC
+ -t 1.512556488 -s 2 -d -1 -p IMEP -e 54 -c 2 -a 0 -i 177 -k RTR 
- -t 1.512556488 -s 2 -d -1 -p IMEP -e 54 -c 2 -a 0 -i 177 -k RTR
h -t 1.512556488 -s 2 -d -1 -p IMEP -e 54 -c 2 -a 0 -i 177 -k RTR
+ -t 1.512991488 -s 2 -d -1 -p IMEP -e 112 -c 2 -a 0 -i 177 -k MAC 
- -t 1.512991488 -s 2 -d -1 -p IMEP -e 112 -c 2 -a 0 -i 177 -k MAC
h -t 1.512991488 -s 2 -d -1 -p IMEP -e 112 -c 2 -a 0 -i 177 -k MAC
r -t 1.513887822 -s 1 -d -1 -p IMEP -e 54 -c 2 -a 0 -i 177 -k MAC
r -t 1.513887960 -s 3 -d -1 -p IMEP -e 54 -c 2 -a 0 -i 177 -k MAC
r -t 1.513888234 -s 0 -d -1 -p IMEP -e 54 -c 2 -a 0 -i 177 -k MAC
r -t 1.513888234 -s 4 -d -1 -p IMEP -e 54 -c 2 -a 0 -i 177 -k MAC
+ -t 1.514265100 -s 4 -d -1 -p IMEP -e 50 -c 2 -a 0 -i 179 -k RTR 
- -t 1.514265100 -s 4 -d -1 -p IMEP -e 50 -c 2 -a 0 -i 179 -k RTR
h -t 1.514265100 -s 4 -d -1 -p IMEP -e 50 -c 2 -a 0 -i 179 -k RTR
+ -t 1.514420100 -s 4 -d -1 -p IMEP -e 108 -c 2 -a 0 -i 179 -k MAC 
- -t 1.514420100 -s 4 -d -1 -p IMEP -e 108 -c 2 -a 0 -i 179 -k MAC
h -t 1.514420100 -s 4 -d -1 -p IMEP -e 108 -c 2 -a 0 -i 179 -k MAC
r -t 1.515284433 -s 3 -d -1 -p IMEP -e 50 -c 2 -a 0 -i 179 -k MAC
r -t 1.515284571 -s 5 -d -1 -p IMEP -e 50 -c 2 -a 0 -i 179 -k MAC
r -t 1.515284845 -s 2 -d -1 -p IMEP -e 50 -c 2 -a 0 -i 179 -k MAC
+ -t 1.556394803 -s 0 -d -1 -p IMEP -e 62 -c 2 -a 0 -i 183 -k RTR 
- -t 1.556394803 -s 0 -d -1 -p IMEP -e 62 -c 2 -a 0 -i 183 -k RTR
h -t 1.556394803 -s 0 -d -1 -p IMEP -e 62 -c 2 -a 0 -i 183 -k RTR
+ -t 1.556769803 -s 0 -d -1 -p IMEP -e 120 -c 2 -a 0 -i 183 -k MAC 
- -t 1.556769803 -s 0 -d -1 -p IMEP -e 120 -c 2 -a 0 -i 183 -k MAC
h -t 1.556769803 -s 0 -d -1 -p IMEP -e 120 -c 2 -a 0 -i 183 -k MAC
r -t 1.557730275 -s 1 -d -1 -p IMEP -e 62 -c 2 -a 0 -i 183 -k MAC
r -t 1.557730549 -s 2 -d -1 -p IMEP -e 62 -c 2 -a 0 -i 183 -k MAC
+ -t 1.602014554 -s 0 -d -1 -p IMEP -e 42 -c 2 -a 0 -i 187 -k RTR 
- -t 1.602014554 -s 0 -d -1 -p IMEP -e 42 -c 2 -a 0 -i 187 -k RTR
h -t 1.602014554 -s 0 -d -1 -p IMEP -e 42 -c 2 -a 0 -i 187 -k RTR
+ -t 1.602409554 -s 0 -d -1 -p IMEP -e 100 -c 2 -a 0 -i 187 -k MAC 
- -t 1.602409554 -s 0 -d -1 -p IMEP -e 100 -c 2 -a 0 -i 187 -k MAC
h -t 1.602409554 -s 0 -d -1 -p IMEP -e 100 -c 2 -a 0 -i 187 -k MAC
r -t 1.603210025 -s 1 -d -1 -p IMEP -e 42 -c 2 -a 0 -i 187 -k MAC
r -t 1.603210299 -s 2 -d -1 -p IMEP -e 42 -c 2 -a 0 -i 187 -k MAC
+ -t 1.689788053 -s 1 -d -1 -p IMEP -e 52 -c 2 -a 0 -i 193 -k RTR 
- -t 1.689788053 -s 1 -d -1 -p IMEP -e 52 -c 2 -a 0 -i 193 -k RTR
h -t 1.689788053 -s 1 -d -1 -p IMEP -e 52 -c 2 -a 0 -i 193 -k RTR
+ -t 1.689903053 -s 1 -d -1 -p IMEP -e 110 -c 2 -a 0 -i 193 -k MAC 
- -t 1.689903053 -s 1 -d -1 -p IMEP -e 110 -c 2 -a 0 -i 193 -k MAC
h -t 1.689903053 -s 1 -d -1 -p IMEP -e 110 -c 2 -a 0 -i 193 -k MAC
r -t 1.690783386 -s 2 -d -1 -p IMEP -e 52 -c 2 -a 0 -i 193 -k MAC
r -t 1.690783524 -s 0 -d -1 -p IMEP -e 52 -c 2 -a 0 -i 193 -k MAC
r -t 1.690783798 -s 3 -d -1 -p IMEP -e 52 -c 2 -a 0 -i 193 -k MAC
+ -t 1.691263649 -s 0 -d -1 -p IMEP -e 66 -c 2 -a 0 -i 196 -k RTR 
- -t 1.691263649 -s 0 -d -1 -p IMEP -e 66 -c 2 -a 0 -i 196 -k RTR
h -t 1.691263649 -s 0 -d -1 -p IMEP -e 66 -c 2 -a 0 -i 196 -k RTR
+ -t 1.691418649 -s 0 -d -1 -p IMEP -e 124 -c 2 -a 0 -i 196 -k MAC 
- -t 1.691418649 -s 0 -d -1 -p IMEP -e 124 -c 2 -a 0 -i 196 -k MAC
h -t 1.691418649 -s 0 -d -1 -p IMEP -e 124 -c 2 -a 0 -i 196 -k MAC
r -t 1.692411120 -s 1 -d -1 -p IMEP -e 66 -c 2 -a 0 -i 196 -k MAC
r -t 1.692411394 -s 2 -d -1 -p IMEP -e 66 -c 2 -a 0 -i 196 -k MAC
+ -t 1.694765772 -s 1 -d -1 -p IMEP -e 42 -c 2 -a 0 -i 197 -k RTR 
- -t 1.694765772 -s 1 -d -1 -p IMEP -e 42 -c 2 -a 0 -i 197 -k RTR
h -t 1.694765772 -s 1 -d -1 -p IMEP -e 42 -c 2 -a 0 -i 197 -k RTR
+ -t 1.694840772 -s 1 -d -1 -p IMEP -e 100 -c 2 -a 0 -i 197 -k MAC 
- -t 1.694840772 -s 1 -d -1 -p IMEP -e 100 -c 2 -a 0 -i 197 -k MAC
h -t 1.694840772 -s 1 -d -1 -p IMEP -e 100 -c 2 -a 0 -i 197 -k MAC
r -t 1.695641106 -s 2 -d -1 -p IMEP -e 42 -c 2 -a 0 -i 197 -k MAC
r -t 1.695641244 -s 0 -d -1 -p IMEP -e 42 -c 2 -a 0 -i 197 -k MAC
r -t 1.695641518 -s 3 -d -1 -p IMEP -e 42 -c 2 -a 0 -i 197 -k MAC
+ -t 1.698013876 -s 2 -d -1 -p IMEP -e 82 -c 2 -a 0 -i 199 -k RTR 
- -t 1.698013876 -s 2 -d -1 -p IMEP -e 82 -c 2 -a 0 -i 199 -k RTR
h -t 1.698013876 -s 2 -d -1 -p IMEP -e 82 -c 2 -a 0 -i 199 -k RTR
+ -t 1.698408876 -s 2 -d -1 -p IMEP -e 140 -c 2 -a 0 -i 199 -k MAC 
- -t 1.698408876 -s 2 -d -1 -p IMEP -e 140 -c 2 -a 0 -i 199 -k MAC
h -t 1.698408876 -s 2 -d -1 -p IMEP -e 140 -c 2 -a 0 -i 199 -k MAC
r -t 1.699529209 -s 1 -d -1 -p IMEP -e 82 -c 2 -a 0 -i 199 -k MAC
r -t 1.699529347 -s 3 -d -1 -p IMEP -e 82 -c 2 -a 0 -i 199 -k MAC
r -t 1.699529621 -s 0 -d -1 -p IMEP -e 82 -c 2 -a 0 -i 199 -k MAC
r -t 1.699529621 -s 4 -d -1 -p IMEP -e 82 -c 2 -a 0 -i 199 -k MAC
+ -t 1.801424320 -s 1 -d -1 -p IMEP -e 66 -c 2 -a 0 -i 208 -k RTR 
- -t 1.801424320 -s 1 -d -1 -p IMEP -e 66 -c 2 -a 0 -i 208 -k RTR
h -t 1.801424320 -s 1 -d -1 -p IMEP -e 66 -c 2 -a 0 -i 208 -k RTR
+ -t 1.801559320 -s 1 -d -1 -p IMEP -e 124 -c 2 -a 0 -i 208 -k MAC 
- -t 1.801559320 -s 1 -d -1 -p IMEP -e 124 -c 2 -a 0 -i 208 -k MAC
h -t 1.801559320 -s 1 -d -1 -p IMEP -e 124 -c 2 -a 0 -i 208 -k MAC
r -t 1.802551653 -s 2 -d -1 -p IMEP -e 66 -c 2 -a 0 -i 208 -k MAC
r -t 1.802551791 -s 0 -d -1 -p IMEP -e 66 -c 2 -a 0 -i 208 -k MAC
r -t 1.802552065 -s 3 -d -1 -p IMEP -e 66 -c 2 -a 0 -i 208 -k MAC
+ -t 1.803766713 -s 2 -d -1 -p IMEP -e 76 -c 2 -a 0 -i 210 -k RTR 
- -t 1.803766713 -s 2 -d -1 -p IMEP -e 76 -c 2 -a 0 -i 210 -k RTR
h -t 1.803766713 -s 2 -d -1 -p IMEP -e 76 -c 2 -a 0 -i 210 -k RTR
+ -t 1.803842635 -s 3 -d -1 -p IMEP -e 62 -c 2 -a 0 -i 211 -k RTR 
- -t 1.803842635 -s 3 -d -1 -p IMEP -e 62 -c 2 -a 0 -i 211 -k RTR
h -t 1.803842635 -s 3 -d -1 -p IMEP -e 62 -c 2 -a 0 -i 211 -k RTR
+ -t 1.804037635 -s 3 -d -1 -p IMEP -e 120 -c 2 -a 0 -i 211 -k MAC 
- -t 1.804037635 -s 3 -d -1 -p IMEP -e 120 -c 2 -a 0 -i 211 -k MAC
h -t 1.804037635 -s 3 -d -1 -p IMEP -e 120 -c 2 -a 0 -i 211 -k MAC
r -t 1.804997968 -s 4 -d -1 -p IMEP -e 62 -c 2 -a 0 -i 211 -k MAC
r -t 1.804998106 -s 2 -d -1 -p IMEP -e 62 -c 2 -a 0 -i 211 -k MAC
r -t 1.804998380 -s 1 -d -1 -p IMEP -e 62 -c 2 -a 0 -i 211 -k MAC
r -t 1.804998380 -s 5 -d -1 -p IMEP -e 62 -c 2 -a 0 -i 211 -k MAC
+ -t 1.805268106 -s 2 -d -1 -p IMEP -e 134 -c 2 -a 0 -i 210 -k MAC 
- -t 1.805268106 -s 2 -d -1 -p IMEP -e 134 -c 2 -a 0 -i 210 -k MAC
h -t 1.805268106 -s 2 -d -1 -p IMEP -e 134 -c 2 -a 0 -i 210 -k MAC
+ -t 1.806037186 -s 3 -d -1 -p IMEP -e 76 -c 2 -a 0 -i 212 -k RTR 
- -t 1.806037186 -s 3 -d -1 -p IMEP -e 76 -c 2 -a 0 -i 212 -k RTR
h -t 1.806037186 -s 3 -d -1 -p IMEP -e 76 -c 2 -a 0 -i 212 -k RTR
r -t 1.806340439 -s 1 -d -1 -p IMEP -e 76 -c 2 -a 0 -i 210 -k MAC
r -t 1.806340577 -s 3 -d -1 -p IMEP -e 76 -c 2 -a 0 -i 210 -k MAC
r -t 1.806340851 -s 0 -d -1 -p IMEP -e 76 -c 2 -a 0 -i 210 -k MAC
r -t 1.806340851 -s 4 -d -1 -p IMEP -e 76 -c 2 -a 0 -i 210 -k MAC
+ -t 1.806630577 -s 3 -d -1 -p IMEP -e 134 -c 2 -a 0 -i 212 -k MAC 
- -t 1.806630577 -s 3 -d -1 -p IMEP -e 134 -c 2 -a 0 -i 212 -k MAC
h -t 1.806630577 -s 3 -d -1 -p IMEP -e 134 -c 2 -a 0 -i 212 -k MAC
r -t 1.807702911 -s 4 -d -1 -p IMEP -e 76 -c 2 -a 0 -i 212 -k MAC
r -t 1.807703049 -s 2 -d -1 -p IMEP -e 76 -c 2 -a 0 -i 212 -k MAC
r -t 1.807703323 -s 1 -d -1 -p IMEP -e 76 -c 2 -a 0 -i 212 -k MAC
r -t 1.807703323 -s 5 -d -1 -p IMEP -e 76 -c 2 -a 0 -i 212 -k MAC
+ -t 1.809878164 -s 0 -d -1 -p IMEP -e 46 -c 2 -a 0 -i 214 -k RTR 
- -t 1.809878164 -s 0 -d -1 -p IMEP -e 46 -c 2 -a 0 -i 214 -k RTR
h -t 1.809878164 -s 0 -d -1 -p IMEP -e 46 -c 2 -a 0 -i 214 -k RTR
+ -t 1.810033164 -s 0 -d -1 -p IMEP -e 104 -c 2 -a 0 -i 214 -k MAC 
- -t 1.810033164 -s 0 -d -1 -p IMEP -e 104 -c 2 -a 0 -i 214 -k MAC
h -t 1.810033164 -s 0 -d -1 -p IMEP -e 104 -c 2 -a 0 -i 214 -k MAC
+ -t 1.810484032 -s 1 -d -1 -p IMEP -e 46 -c 2 -a 0 -i 216 -k RTR 
- -t 1.810484032 -s 1 -d -1 -p IMEP -e 46 -c 2 -a 0 -i 216 -k RTR
h -t 1.810484032 -s 1 -d -1 -p IMEP -e 46 -c 2 -a 0 -i 216 -k RTR
r -t 1.810865636 -s 1 -d -1 -p IMEP -e 46 -c 2 -a 0 -i 214 -k MAC
r -t 1.810865909 -s 2 -d -1 -p IMEP -e 46 -c 2 -a 0 -i 214 -k MAC
+ -t 1.811475636 -s 1 -d -1 -p IMEP -e 104 -c 2 -a 0 -i 216 -k MAC 
- -t 1.811475636 -s 1 -d -1 -p IMEP -e 104 -c 2 -a 0 -i 216 -k MAC
h -t 1.811475636 -s 1 -d -1 -p IMEP -e 104 -c 2 -a 0 -i 216 -k MAC
r -t 1.812307969 -s 2 -d -1 -p IMEP -e 46 -c 2 -a 0 -i 216 -k MAC
r -t 1.812308107 -s 0 -d -1 -p IMEP -e 46 -c 2 -a 0 -i 216 -k MAC
r -t 1.812308381 -s 3 -d -1 -p IMEP -e 46 -c 2 -a 0 -i 216 -k MAC
+ -t 1.856051833 -s 2 -d -1 -p IMEP -e 80 -c 2 -a 0 -i 221 -k RTR 
- -t 1.856051833 -s 2 -d -1 -p IMEP -e 80 -c 2 -a 0 -i 221 -k RTR
h -t 1.856051833 -s 2 -d -1 -p IMEP -e 80 -c 2 -a 0 -i 221 -k RTR
+ -t 1.856286833 -s 2 -d -1 -p IMEP -e 138 -c 2 -a 0 -i 221 -k MAC 
- -t 1.856286833 -s 2 -d -1 -p IMEP -e 138 -c 2 -a 0 -i 221 -k MAC
h -t 1.856286833 -s 2 -d -1 -p IMEP -e 138 -c 2 -a 0 -i 221 -k MAC
r -t 1.857391167 -s 1 -d -1 -p IMEP -e 80 -c 2 -a 0 -i 221 -k MAC
r -t 1.857391305 -s 3 -d -1 -p IMEP -e 80 -c 2 -a 0 -i 221 -k MAC
r -t 1.857391579 -s 0 -d -1 -p IMEP -e 80 -c 2 -a 0 -i 221 -k MAC
r -t 1.857391579 -s 4 -d -1 -p IMEP -e 80 -c 2 -a 0 -i 221 -k MAC
+ -t 1.857453472 -s 0 -d -1 -p IMEP -e 86 -c 2 -a 0 -i 223 -k RTR 
- -t 1.857453472 -s 0 -d -1 -p IMEP -e 86 -c 2 -a 0 -i 223 -k RTR
h -t 1.857453472 -s 0 -d -1 -p IMEP -e 86 -c 2 -a 0 -i 223 -k RTR
+ -t 1.857549560 -s 3 -d -1 -p IMEP -e 80 -c 2 -a 0 -i 224 -k RTR 
- -t 1.857549560 -s 3 -d -1 -p IMEP -e 80 -c 2 -a 0 -i 224 -k RTR
h -t 1.857549560 -s 3 -d -1 -p IMEP -e 80 -c 2 -a 0 -i 224 -k RTR
+ -t 1.857628472 -s 0 -d -1 -p IMEP -e 144 -c 2 -a 0 -i 223 -k MAC 
- -t 1.857628472 -s 0 -d -1 -p IMEP -e 144 -c 2 -a 0 -i 223 -k MAC
h -t 1.857628472 -s 0 -d -1 -p IMEP -e 144 -c 2 -a 0 -i 223 -k MAC
+ -t 1.857841807 -s 3 -d -1 -p IMEP -e 50 -c 2 -a 0 -i 225 -k RTR 
- -t 1.857841807 -s 3 -d -1 -p IMEP -e 50 -c 2 -a 0 -i 225 -k RTR
h -t 1.857841807 -s 3 -d -1 -p IMEP -e 50 -c 2 -a 0 -i 225 -k RTR
r -t 1.858780944 -s 1 -d -1 -p IMEP -e 86 -c 2 -a 0 -i 223 -k MAC
r -t 1.858781218 -s 2 -d -1 -p IMEP -e 86 -c 2 -a 0 -i 223 -k MAC
+ -t 1.859415674 -s 3 -d -1 -p IMEP -e 138 -c 2 -a 0 -i 224 -k MAC 
- -t 1.859415674 -s 3 -d -1 -p IMEP -e 138 -c 2 -a 0 -i 224 -k MAC
h -t 1.859415674 -s 3 -d -1 -p IMEP -e 138 -c 2 -a 0 -i 224 -k MAC
+ -t 1.859520769 -s 4 -d -1 -p IMEP -e 126 -c 2 -a 0 -i 226 -k RTR 
- -t 1.859520769 -s 4 -d -1 -p IMEP -e 126 -c 2 -a 0 -i 226 -k RTR
h -t 1.859520769 -s 4 -d -1 -p IMEP -e 126 -c 2 -a 0 -i 226 -k RTR
r -t 1.860520008 -s 4 -d -1 -p IMEP -e 80 -c 2 -a 0 -i 224 -k MAC
r -t 1.860520146 -s 2 -d -1 -p IMEP -e 80 -c 2 -a 0 -i 224 -k MAC
r -t 1.860520420 -s 1 -d -1 -p IMEP -e 80 -c 2 -a 0 -i 224 -k MAC