M 0.00000 0 (0.00, 0.00, 0.00), (100.00, 100.00), 3000.00
M 0.00000 1 (0.00, 0.00, 0.00), (200.00, 200.00), 3000.00
M 0.00000 2 (0.00, 0.00, 0.00), (300.00, 200.00), 3000.00
M 0.00000 3 (0.00, 0.00, 0.00), (400.00, 300.00), 3000.00
M 0.00000 4 (0.00, 0.00, 0.00), (500.00, 300.00), 3000.00
M 0.00000 5 (0.00, 0.00, 0.00), (600.00, 400.00), 3000.00
T 1.000000000 _0_ tora enq 0->5
T 1.000000000 _0_ tora sendQRY 5
s 1.000000000 _0_ RTR  --- 2 IMEP 38 [0 0 0 0] ------- [0:255 -1:255 1 0] [- - O 0x0012] 
s 1.000275000 _0_ MAC  --- 2 IMEP 96 [0 ffffffff 0 800] ------- [0:255 -1:255 1 0] [- - O 0x0012] 
r 1.001043471 _1_ MAC  --- 2 IMEP 38 [0 ffffffff 0 800] ------- [0:255 -1:255 1 0] [- - O 0x0012] 
r 1.001043745 _2_ MAC  --- 2 IMEP 38 [0 ffffffff 0 800] ------- [0:255 -1:255 1 0] [- - O 0x0012] 
T 1.015000000 _0_ tora enq 0->5
T 1.030000000 _0_ tora enq 0->5
T 1.045000000 _0_ tora enq 0->5
T 1.060000000 _0_ tora enq 0->5
T 1.075000000 _0_ tora enq 0->5
T 1.090000000 _0_ tora enq 0->5
s 1.100000000 _1_ RTR  --- 11 IMEP 34 [0 0 0 0] ------- [1:255 -1:255 1 0] [- H - 0x000e] 
s 1.100115000 _1_ MAC  --- 11 IMEP 92 [0 ffffffff 1 800] ------- [1:255 -1:255 1 0] [- H - 0x000e] 
r 1.100851333 _2_ MAC  --- 11 IMEP 34 [0 ffffffff 1 800] ------- [1:255 -1:255 1 0] [- H - 0x000e] 
r 1.100851471 _0_ MAC  --- 11 IMEP 34 [0 ffffffff 1 800] ------- [1:255 -1:255 1 0] [- H - 0x000e] 
r 1.100851745 _3_ MAC  --- 11 IMEP 34 [0 ffffffff 1 800] ------- [1:255 -1:255 1 0] [- H - 0x000e] 
T 1.100876471 _0_ QRY 5 for 1 (rtreq set)
T 1.100876471 _0_ tora sendQRY 5
s 1.102014554 _0_ RTR  --- 17 IMEP 52 [0 0 0 0] ------- [0:255 -1:255 1 0] [- H O 0x0020] 
s 1.102249554 _0_ MAC  --- 17 IMEP 110 [0 ffffffff 0 800] ------- [0:255 -1:255 1 0] [- H O 0x0020] 
r 1.103130025 _1_ MAC  --- 17 IMEP 52 [0 ffffffff 0 800] ------- [0:255 -1:255 1 0] [- H O 0x0020] 
r 1.103130299 _2_ MAC  --- 17 IMEP 52 [0 ffffffff 0 800] ------- [0:255 -1:255 1 0] [- H O 0x0020] 
T 1.103155025 _1_ QRY 5 for 0 (rtreq set)
T 1.103155025 _1_ tora sendQRY 5
s 1.104096414 _1_ RTR  --- 19 IMEP 52 [0 0 0 0] ------- [1:255 -1:255 1 0] [- H O 0x0020] 
s 1.104491414 _1_ MAC  --- 19 IMEP 110 [0 ffffffff 1 800] ------- [1:255 -1:255 1 0] [- H O 0x0020] 
T 1.105000000 _0_ tora enq 0->5
r 1.105371747 _2_ MAC  --- 19 IMEP 52 [0 ffffffff 1 800] ------- [1:255 -1:255 1 0] [- H O 0x0020] 
r 1.105371885 _0_ MAC  --- 19 IMEP 52 [0 ffffffff 1 800] ------- [1:255 -1:255 1 0] [- H O 0x0020] 
r 1.105372159 _3_ MAC  --- 19 IMEP 52 [0 ffffffff 1 800] ------- [1:255 -1:255 1 0] [- H O 0x0020] 
T 1.120000000 _0_ tora enq 0->5
T 1.135000000 _0_ tora enq 0->5
T 1.150000000 _0_ tora enq 0->5
T 1.165000000 _0_ tora enq 0->5
T 1.180000000 _0_ tora enq 0->5
s 1.181976651 _2_ RTR  --- 27 IMEP 38 [0 0 0 0] ------- [2:255 -1:255 1 0] [- H - 0x0012] 
s 1.182071651 _2_ MAC  --- 27 IMEP 96 [0 ffffffff 2 800] ------- [2:255 -1:255 1 0] [- H - 0x0012] 
r 1.182839984 _1_ MAC  --- 27 IMEP 38 [0 ffffffff 2 800] ------- [2:255 -1:255 1 0] [- H - 0x0012] 
r 1.182840123 _3_ MAC  --- 27 IMEP 38 [0 ffffffff 2 800] ------- [2:255 -1:255 1 0] [- H - 0x0012] 
r 1.182840396 _0_ MAC  --- 27 IMEP 38 [0 ffffffff 2 800] ------- [2:255 -1:255 1 0] [- H - 0x0012] 
r 1.182840396 _4_ MAC  --- 27 IMEP 38 [0 ffffffff 2 800] ------- [2:255 -1:255 1 0] [- H - 0x0012] 
T 1.182864984 _1_ QRY 16777221 for 2 (rtreq set)
T 1.182864984 _1_ tora sendQRY 16777221
T 1.182864984 _1_ QRY 5 for 2 (rtreq set)
T 1.182864984 _1_ tora sendQRY 5
T 1.182865396 _0_ QRY 5 for 2 (rtreq set)
T 1.182865396 _0_ tora sendQRY 5
s 1.189788053 _1_ RTR  --- 35 IMEP 66 [0 0 0 0] ------- [1:255 -1:255 1 0] [- H O 0x002e] 
s 1.190223053 _1_ MAC  --- 35 IMEP 124 [0 ffffffff 1 800] ------- [1:255 -1:255 1 0] [- H O 0x002e] 
r 1.191215386 _2_ MAC  --- 35 IMEP 66 [0 ffffffff 1 800] ------- [1:255 -1:255 1 0] [- H O 0x002e] 
r 1.191215524 _0_ MAC  --- 35 IMEP 66 [0 ffffffff 1 800] ------- [1:255 -1:255 1 0] [- H O 0x002e] 
r 1.191215798 _3_ MAC  --- 35 IMEP 66 [0 ffffffff 1 800] ------- [1:255 -1:255 1 0] [- H O 0x002e] 
T 1.191240386 _2_ QRY 16777221 for 1 (rtreq set)
T 1.191240386 _2_ tora sendQRY 16777221
T 1.191240386 _2_ QRY 5 for 1 (rtreq set)
T 1.191240386 _2_ tora sendQRY 5
T 1.191240524 _0_ tora sendQRY 16777221
T 1.191240524 _0_ tora sendQRY 33554437
s 1.191263649 _0_ RTR  --- 41 IMEP 98 [0 0 0 0] ------- [0:255 -1:255 1 0] [A H O 0x004e] 
s 1.191618649 _0_ MAC  --- 41 IMEP 156 [0 ffffffff 0 800] ------- [0:255 -1:255 1 0] [A H O 0x004e] 
r 1.192867120 _1_ MAC  --- 41 IMEP 98 [0 ffffffff 0 800] ------- [0:255 -1:255 1 0] [A H O 0x004e] 
r 1.192867394 _2_ MAC  --- 41 IMEP 98 [0 ffffffff 0 800] ------- [0:255 -1:255 1 0] [A H O 0x004e] 
T 1.192892120 _1_ tora sendQRY 33554437
T 1.192892394 _2_ QRY 33554437 for 0 (rtreq set)
T 1.192892394 _2_ tora sendQRY 33554437
T 1.192892394 _2_ QRY 16777221 for 0 (rtreq set)
T 1.192892394 _2_ tora sendQRY 16777221
T 1.192892394 _2_ QRY 5 for 0 (rtreq set)
T 1.192892394 _2_ tora sendQRY 5
s 1.194765772 _1_ RTR  --- 46 IMEP 46 [0 0 0 0] ------- [1:255 -1:255 1 0] [- - O 0x001a] 
T 1.195000000 _0_ tora enq 0->5
s 1.195420772 _1_ MAC  --- 46 IMEP 104 [0 ffffffff 1 800] ------- [1:255 -1:255 1 0] [- - O 0x001a] 
r 1.196253106 _2_ MAC  --- 46 IMEP 46 [0 ffffffff 1 800] ------- [1:255 -1:255 1 0] [- - O 0x001a] 
r 1.196253244 _0_ MAC  --- 46 IMEP 46 [0 ffffffff 1 800] ------- [1:255 -1:255 1 0] [- - O 0x001a] 
r 1.196253518 _3_ MAC  --- 46 IMEP 46 [0 ffffffff 1 800] ------- [1:255 -1:255 1 0] [- - O 0x001a] 
s 1.198013876 _2_ RTR  --- 49 IMEP 86 [0 0 0 0] ------- [2:255 -1:255 1 0] [- - O 0x0042] 
s 1.198428876 _2_ MAC  --- 49 IMEP 144 [0 ffffffff 2 800] ------- [2:255 -1:255 1 0] [- - O 0x0042] 
r 1.199581209 _1_ MAC  --- 49 IMEP 86 [0 ffffffff 2 800] ------- [2:255 -1:255 1 0] [- - O 0x0042] 
r 1.199581347 _3_ MAC  --- 49 IMEP 86 [0 ffffffff 2 800] ------- [2:255 -1:255 1 0] [- - O 0x0042] 
r 1.199581621 _0_ MAC  --- 49 IMEP 86 [0 ffffffff 2 800] ------- [2:255 -1:255 1 0] [- - O 0x0042] 
r 1.199581621 _4_ MAC  --- 49 IMEP 86 [0 ffffffff 2 800] ------- [2:255 -1:255 1 0] [- - O 0x0042] 
T 1.210000000 _0_ tora enq 0->5
T 1.225000000 _0_ tora enq 0->5
T 1.240000000 _0_ tora enq 0->5
T 1.255000000 _0_ tora enq 0->5
T 1.270000000 _0_ tora enq 0->5
T 1.285000000 _0_ tora enq 0->5
T 1.300000000 _0_ tora enq 0->5
s 1.300000000 _3_ RTR  --- 60 IMEP 38 [0 0 0 0] ------- [3:255 -1:255 1 0] [- H - 0x0012] 
s 1.300355000 _3_ MAC  --- 60 IMEP 96 [0 ffffffff 3 800] ------- [3:255 -1:255 1 0] [- H - 0x0012] 
r 1.301123333 _4_ MAC  --- 60 IMEP 38 [0 ffffffff 3 800] ------- [3:255 -1:255 1 0] [- H - 0x0012] 
r 1.301123471 _2_ MAC  --- 60 IMEP 38 [0 ffffffff 3 800] ------- [3:255 -1:255 1 0] [- H - 0x0012] 
r 1.301123745 _1_ MAC  --- 60 IMEP 38 [0 ffffffff 3 800] ------- [3:255 -1:255 1 0] [- H - 0x0012] 
r 1.301123745 _5_ MAC  --- 60 IMEP 38 [0 ffffffff 3 800] ------- [3:255 -1:255 1 0] [- H - 0x0012] 
T 1.301148471 _2_ QRY 33554437 for 3 (rtreq set)
T 1.301148471 _2_ tora sendQRY 33554437
T 1.301148471 _2_ QRY 16777221 for 3 (rtreq set)
T 1.301148471 _2_ tora sendQRY 16777221
T 1.301148471 _2_ QRY 5 for 3 (rtreq set)
T 1.301148471 _2_ tora sendQRY 5
T 1.301148745 _1_ QRY 33554437 for 3 (rtreq set)
T 1.301148745 _1_ tora sendQRY 33554437
T 1.301148745 _1_ QRY 16777221 for 3 (rtreq set)
T 1.301148745 _1_ tora sendQRY 16777221
T 1.301148745 _1_ QRY 5 for 3 (rtreq set)
T 1.301148745 _1_ tora sendQRY 5
s 1.301424320 _1_ RTR  --- 73 IMEP 80 [0 0 0 0] ------- [1:255 -1:255 1 0] [- H O 0x003c] 
s 1.301799320 _1_ MAC  --- 73 IMEP 138 [0 ffffffff 1 800] ------- [1:255 -1:255 1 0] [- H O 0x003c] 
r 1.302903653 _2_ MAC  --- 73 IMEP 80 [0 ffffffff 1 800] ------- [1:255 -1:255 1 0] [- H O 0x003c] 
r 1.302903791 _0_ MAC  --- 73 IMEP 80 [0 ffffffff 1 800] ------- [1:255 -1:255 1 0] [- H O 0x003c] 
r 1.302904065 _3_ MAC  --- 73 IMEP 80 [0 ffffffff 1 800] ------- [1:255 -1:255 1 0] [- H O 0x003c] 
T 1.302928653 _2_ tora sendQRY 50331653
T 1.302928791 _0_ tora sendQRY 50331653
T 1.302929065 _3_ QRY 33554437 for 1 (rtreq set)
T 1.302929065 _3_ tora sendQRY 33554437
T 1.302929065 _3_ QRY 16777221 for 1 (rtreq set)
T 1.302929065 _3_ tora sendQRY 16777221
T 1.302929065 _3_ QRY 5 for 1 (rtreq set)
T 1.302929065 _3_ tora sendQRY 5
s 1.303766713 _2_ RTR  --- 80 IMEP 98 [0 0 0 0] ------- [2:255 -1:255 1 0] [- H O 0x004e] 
s 1.303842635 _3_ RTR  --- 81 IMEP 76 [0 0 0 0] ------- [3:255 -1:255 1 0] [- H O 0x0038] 
s 1.303881713 _2_ MAC  --- 80 IMEP 156 [0 ffffffff 2 800] ------- [2:255 -1:255 1 0] [- H O 0x004e] 
r 1.305130046 _1_ MAC  --- 80 IMEP 98 [0 ffffffff 2 800] ------- [2:255 -1:255 1 0] [- H O 0x004e] 
r 1.305130184 _3_ MAC  --- 80 IMEP 98 [0 ffffffff 2 800] ------- [2:255 -1:255 1 0] [- H O 0x004e] 
r 1.305130458 _0_ MAC  --- 80 IMEP 98 [0 ffffffff 2 800] ------- [2:255 -1:255 1 0] [- H O 0x004e] 
r 1.305130458 _4_ MAC  --- 80 IMEP 98 [0 ffffffff 2 800] ------- [2:255 -1:255 1 0] [- H O 0x004e] 
T 1.305155046 _1_ tora sendQRY 50331653
T 1.305155184 _3_ QRY 50331653 for 2 (rtreq set)
T 1.305155184 _3_ tora sendQRY 50331653
T 1.305155184 _3_ QRY 33554437 for 2 (rtreq set)
T 1.305155184 _3_ tora sendQRY 33554437
T 1.305155184 _3_ QRY 16777221 for 2 (rtreq set)
T 1.305155184 _3_ tora sendQRY 16777221
T 1.305155184 _3_ QRY 5 for 2 (rtreq set)
T 1.305155184 _3_ tora sendQRY 5
s 1.305640184 _3_ MAC  --- 81 IMEP 134 [0 ffffffff 3 800] ------- [3:255 -1:255 1 0] [- H O 0x0038] 
s 1.306037186 _3_ RTR  --- 88 IMEP 76 [0 0 0 0] ------- [3:255 -1:255 1 0] [- - O 0x0038] 
r 1.306712518 _4_ MAC  --- 81 IMEP 76 [0 ffffffff 3 800] ------- [3:255 -1:255 1 0] [- H O 0x0038] 
r 1.306712656 _2_ MAC  --- 81 IMEP 76 [0 ffffffff 3 800] ------- [3:255 -1:255 1 0] [- H O 0x0038] 
r 1.306712930 _1_ MAC  --- 81 IMEP 76 [0 ffffffff 3 800] ------- [3:255 -1:255 1 0] [- H O 0x0038] 
r 1.306712930 _5_ MAC  --- 81 IMEP 76 [0 ffffffff 3 800] ------- [3:255 -1:255 1 0] [- H O 0x0038] 
s 1.306822184 _3_ MAC  --- 88 IMEP 134 [0 ffffffff 3 800] ------- [3:255 -1:255 1 0] [- - O 0x0038] 
r 1.307894518 _4_ MAC  --- 88 IMEP 76 [0 ffffffff 3 800] ------- [3:255 -1:255 1 0] [- - O 0x0038] 
r 1.307894656 _2_ MAC  --- 88 IMEP 76 [0 ffffffff 3 800] ------- [3:255 -1:255 1 0] [- - O 0x0038] 
r 1.307894930 _1_ MAC  --- 88 IMEP 76 [0 ffffffff 3 800] ------- [3:255 -1:255 1 0] [- - O 0x0038] 
r 1.307894930 _5_ MAC  --- 88 IMEP 76 [0 ffffffff 3 800] ------- [3:255 -1:255 1 0] [- - O 0x0038] 
s 1.309878164 _0_ RTR  --- 89 IMEP 84 [0 0 0 0] ------- [0:255 -1:255 1 0] [A - O 0x0040] 
s 1.310484032 _1_ RTR  --- 90 IMEP 50 [0 0 0 0] ------- [1:255 -1:255 1 0] [- - O 0x001e] 
s 1.310553164 _0_ MAC  --- 89 IMEP 142 [0 ffffffff 0 800] ------- [0:255 -1:255 1 0] [A - O 0x0040] 
r 1.311689636 _1_ MAC  --- 89 IMEP 84 [0 ffffffff 0 800] ------- [0:255 -1:255 1 0] [A - O 0x0040] 
r 1.311689909 _2_ MAC  --- 89 IMEP 84 [0 ffffffff 0 800] ------- [0:255 -1:255 1 0] [A - O 0x0040] 
s 1.311859636 _1_ MAC  --- 90 IMEP 108 [0 ffffffff 1 800] ------- [1:255 -1:255 1 0] [- - O 0x001e] 
r 1.312723969 _2_ MAC  --- 90 IMEP 50 [0 ffffffff 1 800] ------- [1:255 -1:255 1 0] [- - O 0x001e] 
r 1.312724107 _0_ MAC  --- 90 IMEP 50 [0 ffffffff 1 800] ------- [1:255 -1:255 1 0] [- - O 0x001e] 
r 1.312724381 _3_ MAC  --- 90 IMEP 50 [0 ffffffff 1 800] ------- [1:255 -1:255 1 0] [- - O 0x001e] 
T 1.315000000 _0_ tora enq 0->5
T 1.330000000 _0_ tora enq 0->5
T 1.345000000 _0_ tora enq 0->5
s 1.354581342 _4_ RTR  --- 95 IMEP 38 [0 0 0 0] ------- [4:255 -1:255 1 0] [- H - 0x0012] 
s 1.355256342 _4_ MAC  --- 95 IMEP 96 [0 ffffffff 4 800] ------- [4:255 -1:255 1 0] [- H - 0x0012] 
r 1.356024676 _3_ MAC  --- 95 IMEP 38 [0 ffffffff 4 800] ------- [4:255 -1:255 1 0] [- H - 0x0012] 
r 1.356024814 _5_ MAC  --- 95 IMEP 38 [0 ffffffff 4 800] ------- [4:255 -1:255 1 0] [- H - 0x0012] 
r 1.356025088 _2_ MAC  --- 95 IMEP 38 [0 ffffffff 4 800] ------- [4:255 -1:255 1 0] [- H - 0x0012] 
T 1.356049676 _3_ QRY 50331653 for 4 (rtreq set)
T 1.356049676 _3_ tora sendQRY 50331653
T 1.356049676 _3_ QRY 33554437 for 4 (rtreq set)
T 1.356049676 _3_ tora sendQRY 33554437
T 1.356049676 _3_ QRY 16777221 for 4 (rtreq set)
T 1.356049676 _3_ tora sendQRY 16777221
T 1.356049676 _3_ QRY 5 for 4 (rtreq set)
T 1.356049676 _3_ tora sendQRY 5
T 1.356050088 _2_ QRY 50331653 for 4 (rtreq set)
T 1.356050088 _2_ tora sendQRY 50331653
T 1.356050088 _2_ QRY 33554437 for 4 (rtreq set)
T 1.356050088 _2_ tora sendQRY 33554437
T 1.356050088 _2_ QRY 16777221 for 4 (rtreq set)
T 1.356050088 _2_ tora sendQRY 16777221
T 1.356050088 _2_ QRY 5 for 4 (rtreq set)
T 1.356050088 _2_ tora sendQRY 5
s 1.356051833 _2_ RTR  --- 107 IMEP 94 [0 0 0 0] ------- [2:255 -1:255 1 0] [- H O 0x004a] 
s 1.356566833 _2_ MAC  --- 107 IMEP 152 [0 ffffffff 2 800] ------- [2:255 -1:255 1 0] [- H O 0x004a] 
s 1.357549560 _3_ RTR  --- 108 IMEP 90 [0 0 0 0] ------- [3:255 -1:255 1 0] [- H O 0x0046] 
r 1.357783167 _1_ MAC  --- 107 IMEP 94 [0 ffffffff 2 800] ------- [2:255 -1:255 1 0] [- H O 0x004a] 
r 1.357783305 _3_ MAC  --- 107 IMEP 94 [0 ffffffff 2 800] ------- [2:255 -1:255 1 0] [- H O 0x004a] 
r 1.357783579 _0_ MAC  --- 107 IMEP 94 [0 ffffffff 2 800] ------- [2:255 -1:255 1 0] [- H O 0x004a] 
r 1.357783579 _4_ MAC  --- 107 IMEP 94 [0 ffffffff 2 800] ------- [2:255 -1:255 1 0] [- H O 0x004a] 
T 1.357808167 _1_ tora sendQRY 67108869
T 1.357808305 _3_ tora sendQRY 67108869
T 1.357808579 _0_ tora sendQRY 67108869
T 1.357808579 _4_ QRY 50331653 for 2 (rtreq set)
T 1.357808579 _4_ tora sendQRY 50331653
T 1.357808579 _4_ QRY 33554437 for 2 (rtreq set)
T 1.357808579 _4_ tora sendQRY 33554437
T 1.357808579 _4_ QRY 5 for 2 (rtreq set)
T 1.357808579 _4_ tora sendQRY 5
T 1.357808579 _4_ QRY 16777221 for 2 (rtreq set)
T 1.357808579 _4_ tora sendQRY 16777221
s 1.357841807 _3_ RTR  --- 117 IMEP 50 [0 0 0 0] ------- [3:255 -1:255 1 0] [- - O 0x001e] 
s 1.358233305 _3_ MAC  --- 108 IMEP 148 [0 ffffffff 3 800] ------- [3:255 -1:255 1 0] [- H O 0x0046] 
r 1.359417638 _4_ MAC  --- 108 IMEP 90 [0 ffffffff 3 800] ------- [3:255 -1:255 1 0] [- H O 0x0046] 
r 1.359417776 _2_ MAC  --- 108 IMEP 90 [0 ffffffff 3 800] ------- [3:255 -1:255 1 0] [- H O 0x0046] 
r 1.359418050 _1_ MAC  --- 108 IMEP 90 [0 ffffffff 3 800] ------- [3:255 -1:255 1 0] [- H O 0x0046] 
r 1.359418050 _5_ MAC  --- 108 IMEP 90 [0 ffffffff 3 800] ------- [3:255 -1:255 1 0] [- H O 0x0046] 
T 1.359442638 _4_ QRY 67108869 for 3 (rtreq set)
T 1.359442638 _4_ tora sendQRY 67108869
T 1.359442638 _4_ QRY 50331653 for 3 (rtreq set)
T 1.359442638 _4_ tora sendQRY 50331653
T 1.359442638 _4_ QRY 33554437 for 3 (rtreq set)
T 1.359442638 _4_ tora sendQRY 33554437
T 1.359442638 _4_ QRY 5 for 3 (rtreq set)
T 1.359442638 _4_ tora sendQRY 5
T 1.359442638 _4_ QRY 16777221 for 3 (rtreq set)
T 1.359442638 _4_ tora sendQRY 16777221
T 1.359442776 _2_ tora sendQRY 67108869
s 1.359520769 _4_ RTR  --- 124 IMEP 126 [0 0 0 0] ------- [4:255 -1:255 1 0] [- - O 0x006a] 
s 1.359655769 _4_ MAC  --- 124 IMEP 184 [0 ffffffff 4 800] ------- [4:255 -1:255 1 0] [- - O 0x006a] 
T 1.360000000 _0_ tora enq 0->5
s 1.360858056 _1_ RTR  --- 126 IMEP 50 [0 0 0 0] ------- [1:255 -1:255 1 0] [- - O 0x001e] 
s 1.361025927 _0_ RTR  --- 127 IMEP 68 [0 0 0 0] ------- [0:255 -1:255 1 0] [A - O 0x0030] 
r 1.361128102 _3_ MAC  --- 124 IMEP 126 [0 ffffffff 4 800] ------- [4:255 -1:255 1 0] [- - O 0x006a] 
r 1.361128240 _5_ MAC  --- 124 IMEP 126 [0 ffffffff 4 800] ------- [4:255 -1:255 1 0] [- - O 0x006a] 
r 1.361128514 _2_ MAC  --- 124 IMEP 126 [0 ffffffff 4 800] ------- [4:255 -1:255 1 0] [- - O 0x006a] 
s 1.361498102 _3_ MAC  --- 117 IMEP 108 [0 ffffffff 3 800] ------- [3:255 -1:255 1 0] [- - O 0x001e] 
s 1.361518927 _2_ RTR  --- 128 IMEP 54 [0 0 0 0] ------- [2:255 -1:255 1 0] [- - O 0x0022] 
r 1.362362435 _4_ MAC  --- 117 IMEP 50 [0 ffffffff 3 800] ------- [3:255 -1:255 1 0] [- - O 0x001e] 
r 1.362362573 _2_ MAC  --- 117 IMEP 50 [0 ffffffff 3 800] ------- [3:255 -1:255 1 0] [- - O 0x001e] 
r 1.362362847 _1_ MAC  --- 117 IMEP 50 [0 ffffffff 3 800] ------- [3:255 -1:255 1 0] [- - O 0x001e] 
r 1.362362847 _5_ MAC  --- 117 IMEP 50 [0 ffffffff 3 800] ------- [3:255 -1:255 1 0] [- - O 0x001e] 
s 1.362432573 _2_ MAC  --- 128 IMEP 112 [0 ffffffff 2 800] ------- [2:255 -1:255 1 0] [- - O 0x0022] 
r 1.363328907 _1_ MAC  --- 128 IMEP 54 [0 ffffffff 2 800] ------- [2:255 -1:255 1 0] [- - O 0x0022] 
r 1.363329045 _3_ MAC  --- 128 IMEP 54 [0 ffffffff 2 800] ------- [2:255 -1:255 1 0] [- - O 0x0022] 
r 1.363329319 _0_ MAC  --- 128 IMEP 54 [0 ffffffff 2 800] ------- [2:255 -1:255 1 0] [- - O 0x0022] 
r 1.363329319 _4_ MAC  --- 128 IMEP 54 [0 ffffffff 2 800] ------- [2:255 -1:255 1 0] [- - O 0x0022] 
s 1.363878907 _1_ MAC  --- 126 IMEP 108 [0 ffffffff 1 800] ------- [1:255 -1:255 1 0] [- - O 0x001e] 
r 1.364743240 _2_ MAC  --- 126 IMEP 50 [0 ffffffff 1 800] ------- [1:255 -1:255 1 0] [- - O 0x001e] 
r 1.364743378 _0_ MAC  --- 126 IMEP 50 [0 ffffffff 1 800] ------- [1:255 -1:255 1 0] [- - O 0x001e] 
r 1.364743652 _3_ MAC  --- 126 IMEP 50 [0 ffffffff 1 800] ------- [1:255 -1:255 1 0] [- - O 0x001e] 
s 1.364893378 _0_ MAC  --- 127 IMEP 126 [0 ffffffff 0 800] ------- [0:255 -1:255 1 0] [A - O 0x0030] 
r 1.365901850 _1_ MAC  --- 127 IMEP 68 [0 ffffffff 0 800] ------- [0:255 -1:255 1 0] [A - O 0x0030] 
r 1.365902123 _2_ MAC  --- 127 IMEP 68 [0 ffffffff 0 800] ------- [0:255 -1:255 1 0] [A - O 0x0030] 
T 1.375000000 _0_ tora enq 0->5
T 1.390000000 _0_ tora enq 0->5
T 1.405000000 _0_ tora enq 0->5
T 1.420000000 _0_ tora enq 0->5
T 1.435000000 _0_ tora enq 0->5
T 1.450000000 _0_ tora enq 0->5
T 1.465000000 _0_ tora enq 0->5
T 1.480000000 _0_ tora enq 0->5
T 1.495000000 _0_ tora enq 0->5
s 1.500000000 _5_ RTR  --- 142 IMEP 38 [0 0 0 0] ------- [5:255 -1:255 1 0] [- H - 0x0012] 
s 1.500455000 _5_ MAC  --- 142 IMEP 96 [0 ffffffff 5 800] ------- [5:255 -1:255 1 0] [- H - 0x0012] 
r 1.501223471 _4_ MAC  --- 142 IMEP 38 [0 ffffffff 5 800] ------- [5:255 -1:255 1 0] [- H - 0x0012] 
r 1.501223745 _3_ MAC  --- 142 IMEP 38 [0 ffffffff 5 800] ------- [5:255 -1:255 1 0] [- H - 0x0012] 
T 1.501248471 _4_ QRY 67108869 for 5 (rtreq set)
T 1.501248471 _4_ tora sendQRY 67108869
T 1.501248471 _4_ QRY 50331653 for 5 (rtreq set)
T 1.501248471 _4_ tora sendQRY 50331653
T 1.501248471 _4_ QRY 33554437 for 5 (rtreq set)
T 1.501248471 _4_ tora sendQRY 33554437
T 1.501248471 _4_ QRY 5 for 5 (rtreq set)
T 1.501248471 _4_ tora sendQRY 5
T 1.501248471 _4_ QRY 16777221 for 5 (rtreq set)
T 1.501248471 _4_ tora sendQRY 16777221
T 1.501248745 _3_ QRY 67108869 for 5 (rtreq set)
T 1.501248745 _3_ tora sendQRY 67108869
T 1.501248745 _3_ QRY 50331653 for 5 (rtreq set)
T 1.501248745 _3_ tora sendQRY 50331653
T 1.501248745 _3_ QRY 33554437 for 5 (rtreq set)
T 1.501248745 _3_ tora sendQRY 33554437
T 1.501248745 _3_ QRY 16777221 for 5 (rtreq set)
T 1.501248745 _3_ tora sendQRY 16777221
T 1.501248745 _3_ QRY 5 for 5 (rtreq set)
T 1.501248745 _3_ tora sendQRY 5
s 1.501835725 _3_ RTR  --- 157 IMEP 104 [0 0 0 0] ------- [3:255 -1:255 1 0] [- H O 0x0054] 
s 1.501893362 _4_ RTR  --- 158 IMEP 108 [0 0 0 0] ------- [4:255 -1:255 1 0] [- H O 0x0058] 
s 1.502188362 _4_ MAC  --- 158 IMEP 166 [0 ffffffff 4 800] ------- [4:255 -1:255 1 0] [- H O 0x0058] 
r 1.503516695 _3_ MAC  --- 158 IMEP 108 [0 ffffffff 4 800] ------- [4:255 -1:255 1 0] [- H O 0x0058] 
r 1.503516833 _5_ MAC  --- 158 IMEP 108 [0 ffffffff 4 800] ------- [4:255 -1:255 1 0] [- H O 0x0058] 
r 1.503517107 _2_ MAC  --- 158 IMEP 108 [0 ffffffff 4 800] ------- [4:255 -1:255 1 0] [- H O 0x0058] 
T 1.503541695 _3_ tora sendQRY 83886085
T 1.503541833 _5_ QRY 67108869 for 4 (rtreq set)
T 1.503541833 _5_ tora sendQRY 67108869
T 1.503541833 _5_ QRY 50331653 for 4 (rtreq set)
T 1.503541833 _5_ tora sendQRY 50331653
T 1.503541833 _5_ QRY 16777221 for 4 (rtreq set)
T 1.503541833 _5_ tora sendQRY 16777221
T 1.503541833 _5_ QRY 33554437 for 4 (rtreq set)
T 1.503541833 _5_ tora sendQRY 33554437
T 1.503542107 _2_ tora sendQRY 83886085
s 1.503886695 _3_ MAC  --- 157 IMEP 162 [0 ffffffff 3 800] ------- [3:255 -1:255 1 0] [- H O 0x0054] 
r 1.505183028 _4_ MAC  --- 157 IMEP 104 [0 ffffffff 3 800] ------- [3:255 -1:255 1 0] [- H O 0x0054] 
r 1.505183166 _2_ MAC  --- 157 IMEP 104 [0 ffffffff 3 800] ------- [3:255 -1:255 1 0] [- H O 0x0054] 
r 1.505183440 _1_ MAC  --- 157 IMEP 104 [0 ffffffff 3 800] ------- [3:255 -1:255 1 0] [- H O 0x0054] 
r 1.505183440 _5_ MAC  --- 157 IMEP 104 [0 ffffffff 3 800] ------- [3:255 -1:255 1 0] [- H O 0x0054] 
T 1.505208028 _4_ tora sendQRY 83886085
T 1.505208440 _1_ tora sendQRY 83886085
T 1.505208440 _5_ QRY 83886085 for 3 (rtreq set)
T 1.505208440 _5_ tora sendQRY 83886085
T 1.505208440 _5_ QRY 67108869 for 3 (rtreq set)
T 1.505208440 _5_ tora sendQRY 67108869
T 1.505208440 _5_ QRY 50331653 for 3 (rtreq set)
T 1.505208440 _5_ tora sendQRY 50331653
T 1.505208440 _5_ QRY 16777221 for 3 (rtreq set)
T 1.505208440 _5_ tora sendQRY 16777221
T 1.505208440 _5_ QRY 33554437 for 3 (rtreq set)
T 1.505208440 _5_ tora sendQRY 33554437
s 1.505831602 _5_ RTR  --- 172 IMEP 140 [0 0 0 0] ------- [5:255 -1:255 1 0] [- H O 0x0078] 
s 1.506506602 _5_ MAC  --- 172 IMEP 198 [0 ffffffff 5 800] ------- [5:255 -1:255 1 0] [- H O 0x0078] 
s 1.506726379 _1_ RTR  --- 173 IMEP 50 [0 0 0 0] ------- [1:255 -1:255 1 0] [- - O 0x001e] 
s 1.507875798 _3_ RTR  --- 174 IMEP 54 [0 0 0 0] ------- [3:255 -1:255 1 0] [- - O 0x0022] 
r 1.508091073 _4_ MAC  --- 172 IMEP 140 [0 ffffffff 5 800] ------- [5:255 -1:255 1 0] [- H O 0x0078] 
r 1.508091347 _3_ MAC  --- 172 IMEP 140 [0 ffffffff 5 800] ------- [5:255 -1:255 1 0] [- H O 0x0078] 
s 1.508646093 _1_ MAC  --- 173 IMEP 108 [0 ffffffff 1 800] ------- [1:255 -1:255 1 0] [- - O 0x001e] 
r 1.509510426 _2_ MAC  --- 173 IMEP 50 [0 ffffffff 1 800] ------- [1:255 -1:255 1 0] [- - O 0x001e] 
r 1.509510564 _0_ MAC  --- 173 IMEP 50 [0 ffffffff 1 800] ------- [1:255 -1:255 1 0] [- - O 0x001e] 
r 1.509510838 _3_ MAC  --- 173 IMEP 50 [0 ffffffff 1 800] ------- [1:255 -1:255 1 0] [- - O 0x001e] 
s 1.509600838 _3_ MAC  --- 174 IMEP 112 [0 ffffffff 3 800] ------- [3:255 -1:255 1 0] [- - O 0x0022] 
T 1.510000000 _0_ tora enq 0->5
r 1.510497171 _4_ MAC  --- 174 IMEP 54 [0 ffffffff 3 800] ------- [3:255 -1:255 1 0] [- - O 0x0022] 
r 1.510497309 _2_ MAC  --- 174 IMEP 54 [0 ffffffff 3 800] ------- [3:255 -1:255 1 0] [- - O 0x0022] 
r 1.510497583 _1_ MAC  --- 174 IMEP 54 [0 ffffffff 3 800] ------- [3:255 -1:255 1 0] [- - O 0x0022] 
r 1.510497583 _5_ MAC  --- 174 IMEP 54 [0 ffffffff 3 800] ------- [3:255 -1:255 1 0] [- - O 0x0022] 
s 1.512556488 _2_ RTR  --- 177 IMEP 54 [0 0 0 0] ------- [2:255 -1:255 1 0] [- - O 0x0022] 
s 1.512991488 _2_ MAC  --- 177 IMEP 112 [0 ffffffff 2 800] ------- [2:255 -1:255 1 0] [- - O 0x0022] 
r 1.513887822 _1_ MAC  --- 177 IMEP 54 [0 ffffffff 2 800] ------- [2:255 -1:255 1 0] [- - O 0x0022] 
r 1.513887960 _3_ MAC  --- 177 IMEP 54 [0 ffffffff 2 800] ------- [2:255 -1:255 1 0] [- - O 0x0022] 
r 1.513888234 _0_ MAC  --- 177 IMEP 54 [0 ffffffff 2 800] ------- [2:255 -1:255 1 0] [- - O 0x0022] 
r 1.513888234 _4_ MAC  --- 177 IMEP 54 [0 ffffffff 2 800] ------- [2:255 -1:255 1 0] [- - O 0x0022] 
s 1.514265100 _4_ RTR  --- 179 IMEP 50 [0 0 0 0] ------- [4:255 -1:255 1 0] [- - O 0x001e] 
s 1.514420100 _4_ MAC  --- 179 IMEP 108 [0 ffffffff 4 800] ------- [4:255 -1:255 1 0] [- - O 0x001e] 
r 1.515284433 _3_ MAC  --- 179 IMEP 50 [0 ffffffff 4 800] ------- [4:255 -1:255 1 0] [- - O 0x001e] 
r 1.515284571 _5_ MAC  --- 179 IMEP 50 [0 ffffffff 4 800] ------- [4:255 -1:255 1 0] [- - O 0x001e] 
r 1.515284845 _2_ MAC  --- 179 IMEP 50 [0 ffffffff 4 800] ------- [4:255 -1:255 1 0] [- - O 0x001e] 
T 1.525000000 _0_ tora enq 0->5
T 1.540000000 _0_ tora enq 0->5
T 1.555000000 _0_ tora enq 0->5
s 1.556394803 _0_ RTR  --- 183 IMEP 62 [0 0 0 0] ------- [0:255 -1:255 1 0] [A - - 0x002a] 
s 1.556769803 _0_ MAC  --- 183 IMEP 120 [0 ffffffff 0 800] ------- [0:255 -1:255 1 0] [A - - 0x002a] 
r 1.557730275 _1_ MAC  --- 183 IMEP 62 [0 ffffffff 0 800] ------- [0:255 -1:255 1 0] [A - - 0x002a] 
r 1.557730549 _2_ MAC  --- 183 IMEP 62 [0 ffffffff 0 800] ------- [0:255 -1:255 1 0] [A - - 0x002a] 
T 1.570000000 _0_ tora enq 0->5
T 1.585000000 _0_ tora enq 0->5
T 1.600000000 _0_ tora enq 0->5
s 1.602014554 _0_ RTR  --- 187 IMEP 42 [0 0 0 0] ------- [0:255 -1:255 1 0] [- - O 0x0016] 
s 1.602409554 _0_ MAC  --- 187 IMEP 100 [0 ffffffff 0 800] ------- [0:255 -1:255 1 0] [- - O 0x0016] 
r 1.603210025 _1_ MAC  --- 187 IMEP 42 [0 ffffffff 0 800] ------- [0:255 -1:255 1 0] [- - O 0x0016] 
r 1.603210299 _2_ MAC  --- 187 IMEP 42 [0 ffffffff 0 800] ------- [0:255 -1:255 1 0] [- - O 0x0016] 
T 1.615000000 _0_ tora enq 0->5
T 1.630000000 _0_ tora enq 0->5
T 1.645000000 _0_ tora enq 0->5
T 1.660000000 _0_ tora enq 0->5
T 1.675000000 _0_ tora enq 0->5
s 1.689788053 _1_ RTR  --- 193 IMEP 52 [0 0 0 0] ------- [1:255 -1:255 1 0] [- - O 0x0020] 
s 1.689903053 _1_ MAC  --- 193 IMEP 110 [0 ffffffff 1 800] ------- [1:255 -1:255 1 0] [- - O 0x0020] 
T 1.690000000 _0_ tora enq 0->5
r 1.690783386 _2_ MAC  --- 193 IMEP 52 [0 ffffffff 1 800] ------- [1:255 -1:255 1 0] [- - O 0x0020] 
r 1.690783524 _0_ MAC  --- 193 IMEP 52 [0 ffffffff 1 800] ------- [1:255 -1:255 1 0] [- - O 0x0020] 
r 1.690783798 _3_ MAC  --- 193 IMEP 52 [0 ffffffff 1 800] ------- [1:255 -1:255 1 0] [- - O 0x0020] 
s 1.691263649 _0_ RTR  --- 196 IMEP 66 [0 0 0 0] ------- [0:255 -1:255 1 0] [- - O 0x002e] 
s 1.691418649 _0_ MAC  --- 196 IMEP 124 [0 ffffffff 0 800] ------- [0:255 -1:255 1 0] [- - O 0x002e] 
r 1.692411120 _1_ MAC  --- 196 IMEP 66 [0 ffffffff 0 800] ------- [0:255 -1:255 1 0] [- - O 0x002e] 
r 1.692411394 _2_ MAC  --- 196 IMEP 66 [0 ffffffff 0 800] ------- [0:255 -1:255 1 0] [- - O 0x002e] 
s 1.694765772 _1_ RTR  --- 197 IMEP 42 [0 0 0 0] ------- [1:255 -1:255 1 0] [- - O 0x0016] 
s 1.694840772 _1_ MAC  --- 197 IMEP 100 [0 ffffffff 1 800] ------- [1:255 -1:255 1 0] [- - O 0x0016] 
r 1.695641106 _2_ MAC  --- 197 IMEP 42 [0 ffffffff 1 800] ------- [1:255 -1:255 1 0] [- - O 0x0016] 
r 1.695641244 _0_ MAC  --- 197 IMEP 42 [0 ffffffff 1 800] ------- [1:255 -1:255 1 0] [- - O 0x0016] 
r 1.695641518 _3_ MAC  --- 197 IMEP 42 [0 ffffffff 1 800] ------- [1:255 -1:255 1 0] [- - O 0x0016] 
s 1.698013876 _2_ RTR  --- 199 IMEP 82 [0 0 0 0] ------- [2:255 -1:255 1 0] [- - O 0x003e] 
s 1.698408876 _2_ MAC  --- 199 IMEP 140 [0 ffffffff 2 800] ------- [2:255 -1:255 1 0] [- - O 0x003e] 
r 1.699529209 _1_ MAC  --- 199 IMEP 82 [0 ffffffff 2 800] ------- [2:255 -1:255 1 0] [- - O 0x003e] 
r 1.699529347 _3_ MAC  --- 199 IMEP 82 [0 ffffffff 2 800] ------- [2:255 -1:255 1 0] [- - O 0x003e] 
r 1.699529621 _0_ MAC  --- 199 IMEP 82 [0 ffffffff 2 800] ------- [2:255 -1:255 1 0] [- - O 0x003e] 
r 1.699529621 _4_ MAC  --- 199 IMEP 82 [0 ffffffff 2 800] ------- [2:255 -1:255 1 0] [- - O 0x003e] 
T 1.705000000 _0_ tora enq 0->5
T 1.720000000 _0_ tora enq 0->5
T 1.735000000 _0_ tora enq 0->5
T 1.750000000 _0_ tora enq 0->5
T 1.765000000 _0_ tora enq 0->5
T 1.780000000 _0_ tora enq 0->5
T 1.795000000 _0_ tora enq 0->5
s 1.801424320 _1_ RTR  --- 208 IMEP 66 [0 0 0 0] ------- [1:255 -1:255 1 0] [- - O 0x002e] 
s 1.801559320 _1_ MAC  --- 208 IMEP 124 [0 ffffffff 1 800] ------- [1:255 -1:255 1 0] [- - O 0x002e] 
r 1.802551653 _2_ MAC  --- 208 IMEP 66 [0 ffffffff 1 800] ------- [1:255 -1:255 1 0] [- - O 0x002e] 
r 1.802551791 _0_ MAC  --- 208 IMEP 66 [0 ffffffff 1 800] ------- [1:255 -1:255 1 0] [- - O 0x002e] 
r 1.802552065 _3_ MAC  --- 208 IMEP 66 [0 ffffffff 1 800] ------- [1:255 -1:255 1 0] [- - O 0x002e] 
s 1.803766713 _2_ RTR  --- 210 IMEP 76 [0 0 0 0] ------- [2:255 -1:255 1 0] [- - O 0x0038] 
s 1.803842635 _3_ RTR  --- 211 IMEP 62 [0 0 0 0] ------- [3:255 -1:255 1 0] [- - O 0x002a] 
s 1.804037635 _3_ MAC  --- 211 IMEP 120 [0 ffffffff 3 800] ------- [3:255 -1:255 1 0] [- - O 0x002a] 
r 1.804997968 _4_ MAC  --- 211 IMEP 62 [0 ffffffff 3 800] ------- [3:255 -1:255 1 0] [- - O 0x002a] 
r 1.804998106 _2_ MAC  --- 211 IMEP 62 [0 ffffffff 3 800] ------- [3:255 -1:255 1 0] [- - O 0x002a] 
r 1.804998380 _1_ MAC  --- 211 IMEP 62 [0 ffffffff 3 800] ------- [3:255 -1:255 1 0] [- - O 0x002a] 
r 1.804998380 _5_ MAC  --- 211 IMEP 62 [0 ffffffff 3 800] ------- [3:255 -1:255 1 0] [- - O 0x002a] 
s 1.805268106 _2_ MAC  --- 210 IMEP 134 [0 ffffffff 2 800] ------- [2:255 -1:255 1 0] [- - O 0x0038] 
s 1.806037186 _3_ RTR  --- 212 IMEP 76 [0 0 0 0] ------- [3:255 -1:255 1 0] [- - O 0x0038] 
r 1.806340439 _1_ MAC  --- 210 IMEP 76 [0 ffffffff 2 800] ------- [2:255 -1:255 1 0] [- - O 0x0038] 
r 1.806340577 _3_ MAC  --- 210 IMEP 76 [0 ffffffff 2 800] ------- [2:255 -1:255 1 0] [- - O 0x0038] 
r 1.806340851 _0_ MAC  --- 210 IMEP 76 [0 ffffffff 2 800] ------- [2:255 -1:255 1 0] [- - O 0x0038] 
r 1.806340851 _4_ MAC  --- 210 IMEP 76 [0 ffffffff 2 800] ------- [2:255 -1:255 1 0] [- - O 0x0038] 
s 1.806630577 _3_ MAC  --- 212 IMEP 134 [0 ffffffff 3 800] ------- [3:255 -1:255 1 0] [- - O 0x0038] 
r 1.807702911 _4_ MAC  --- 212 IMEP 76 [0 ffffffff 3 800] ------- [3:255 -1:255 1 0] [- - O 0x0038] 
r 1.807703049 _2_ MAC  --- 212 IMEP 76 [0 ffffffff 3 800] ------- [3:255 -1:255 1 0] [- - O 0x0038] 
r 1.807703323 _1_ MAC  --- 212 IMEP 76 [0 ffffffff 3 800] ------- [3:255 -1:255 1 0] [- - O 0x0038] 
r 1.807703323 _5_ MAC  --- 212 IMEP 76 [0 ffffffff 3 800] ------- [3:255 -1:255 1 0] [- - O 0x0038] 
s 1.809878164 _0_ RTR  --- 214 IMEP 46 [0 0 0 0] ------- [0:255 -1:255 1 0] [- - O 0x001a] 
T 1.810000000 _0_ tora enq 0->5
s 1.810033164 _0_ MAC  --- 214 IMEP 104 [0 ffffffff 0 800] ------- [0:255 -1:255 1 0] [- - O 0x001a] 
s 1.810484032 _1_ RTR  --- 216 IMEP 46 [0 0 0 0] ------- [1:255 -1:255 1 0] [- - O 0x001a] 
r 1.810865636 _1_ MAC  --- 214 IMEP 46 [0 ffffffff 0 800] ------- [0:255 -1:255 1 0] [- - O 0x001a] 
r 1.810865909 _2_ MAC  --- 214 IMEP 46 [0 ffffffff 0 800] ------- [0:255 -1:255 1 0] [- - O 0x001a] 
s 1.811475636 _1_ MAC  --- 216 IMEP 104 [0 ffffffff 1 800] ------- [1:255 -1:255 1 0] [- - O 0x001a] 
r 1.812307969 _2_ MAC  --- 216 IMEP 46 [0 ffffffff 1 800] ------- [1:255 -1:255 1 0] [- - O 0x001a] 