V -t * -v 1.0a5 -a 0
A -t * -n 1 -p 0 -o 0x7fffffff -c 30 -a 1
A -t * -h 1 -m 1073741823 -s 0
n -t * -a 4 -s 4 -S UP -v circle -c black -i black
n -t * -a 0 -s 0 -S UP -v circle -c black -i black
n -t * -a 5 -s 5 -S UP -v circle -c black -i black
n -t * -a 1 -s 1 -S UP -v circle -c black -i black
n -t * -a 2 -s 2 -S UP -v circle -c black -i black
n -t * -a 3 -s 3 -S UP -v circle -c black -i black
l -t * -s 0 -d 1 -S UP -r 10000000 -D 0.0050000000000000001 -c black -o right
l -t * -s 0 -d 2 -S UP -r 10000000 -D 0.0050000000000000001 -c black -o left-up
l -t * -s 0 -d 3 -S UP -r 10000000 -D 0.0050000000000000001 -c black -o left-down
l -t * -s 1 -d 4 -S UP -r 10000000 -D 0.0050000000000000001 -c black -o right-up
l -t * -s 1 -d 5 -S UP -r 10000000 -D 0.0050000000000000001 -c black -o right-down
+ -t 1 -s 3 -d 0 -p cbr -e 512 -c 0 -i 0 -a 0 -x {3.0 5.0 0 ------- null}
- -t 1 -s 3 -d 0 -p cbr -e 512 -c 0 -i 0 -a 0 -x {3.0 5.0 0 ------- null}
h -t 1 -s 3 -d 0 -p cbr -e 512 -c 0 -i 0 -a 0 -x {3.0 5.0 -1 ------- null}
r -t 1.0054096 -s 3 -d 0 -p cbr -e 512 -c 0 -i 0 -a 0 -x {3.0 5.0 0 ------- null}
+ -t 1.0054096 -s 0 -d 1 -p cbr -e 512 -c 0 -i 0 -a 0 -x {3.0 5.0 0 ------- null}
- -t 1.0054096 -s 0 -d 1 -p cbr -e 512 -c 0 -i 0 -a 0 -x {3.0 5.0 0 ------- null}
h -t 1.0054096 -s 0 -d 1 -p cbr -e 512 -c 0 -i 0 -a 0 -x {3.0 5.0 -1 ------- null}
r -t 1.0108192 -s 0 -d 1 -p cbr -e 512 -c 0 -i 0 -a 0 -x {3.0 5.0 0 ------- null}
+ -t 1.0108192 -s 1 -d 5 -p cbr -e 512 -c 0 -i 0 -a 0 -x {3.0 5.0 0 ------- null}
- -t 1.0108192 -s 1 -d 5 -p cbr -e 512 -c 0 -i 0 -a 0 -x {3.0 5.0 0 ------- null}
h -t 1.0108192 -s 1 -d 5 -p cbr -e 512 -c 0 -i 0 -a 0 -x {3.0 5.0 -1 ------- null}
r -t 1.0162288 -s 1 -d 5 -p cbr -e 512 -c 0 -i 0 -a 0 -x {3.0 5.0 0 ------- null}
+ -t 1.02048 -s 3 -d 0 -p cbr -e 512 -c 0 -i 1 -a 0 -x {3.0 5.0 1 ------- null}
- -t 1.02048 -s 3 -d 0 -p cbr -e 512 -c 0 -i 1 -a 0 -x {3.0 5.0 1 ------- null}
h -t 1.02048 -s 3 -d 0 -p cbr -e 512 -c 0 -i 1 -a 0 -x {3.0 5.0 -1 ------- null}
r -t 1.0258896 -s 3 -d 0 -p cbr -e 512 -c 0 -i 1 -a 0 -x {3.0 5.0 1 ------- null}
+ -t 1.0258896 -s 0 -d 1 -p cbr -e 512 -c 0 -i 1 -a 0 -x {3.0 5.0 1 ------- null}
- -t 1.0258896 -s 0 -d 1 -p cbr -e 512 -c 0 -i 1 -a 0 -x {3.0 5.0 1 ------- null}
h -t 1.0258896 -s 0 -d 1 -p cbr -e 512 -c 0 -i 1 -a 0 -x {3.0 5.0 -1 ------- null}
r -t 1.0312992 -s 0 -d 1 -p cbr -e 512 -c 0 -i 1 -a 0 -x {3.0 5.0 1 ------- null}
+ -t 1.0312992 -s 1 -d 5 -p cbr -e 512 -c 0 -i 1 -a 0 -x {3.0 5.0 1 ------- null}
- -t 1.0312992 -s 1 -d 5 -p cbr -e 512 -c 0 -i 1 -a 0 -x {3.0 5.0 1 ------- null}
h -t 1.0312992 -s 1 -d 5 -p cbr -e 512 -c 0 -i 1 -a 0 -x {3.0 5.0 -1 ------- null}
r -t 1.0367088 -s 1 -d 5 -p cbr -e 512 -c 0 -i 1 -a 0 -x {3.0 5.0 1 ------- null}
+ -t 1.04096 -s 3 -d 0 -p cbr -e 512 -c 0 -i 2 -a 0 -x {3.0 5.0 2 ------- null}
- -t 1.04096 -s 3 -d 0 -p cbr -e 512 -c 0 -i 2 -a 0 -x {3.0 5.0 2 ------- null}
h -t 1.04096 -s 3 -d 0 -p cbr -e 512 -c 0 -i 2 -a 0 -x {3.0 5.0 -1 ------- null}
r -t 1.0463696 -s 3 -d 0 -p cbr -e 512 -c 0 -i 2 -a 0 -x {3.0 5.0 2 ------- null}
+ -t 1.0463696 -s 0 -d 1 -p cbr -e 512 -c 0 -i 2 -a 0 -x {3.0 5.0 2 ------- null}
- -t 1.0463696 -s 0 -d 1 -p cbr -e 512 -c 0 -i 2 -a 0 -x {3.0 5.0 2 ------- null}
h -t 1.0463696 -s 0 -d 1 -p cbr -e 512 -c 0 -i 2 -a 0 -x {3.0 5.0 -1 ------- null}
r -t 1.0517792 -s 0 -d 1 -p cbr -e 512 -c 0 -i 2 -a 0 -x {3.0 5.0 2 ------- null}
+ -t 1.0517792 -s 1 -d 5 -p cbr -e 512 -c 0 -i 2 -a 0 -x {3.0 5.0 2 ------- null}
- -t 1.0517792 -s 1 -d 5 -p cbr -e 512 -c 0 -i 2 -a 0 -x {3.0 5.0 2 ------- null}
h -t 1.0517792 -s 1 -d 5 -p cbr -e 512 -c 0 -i 2 -a 0 -x {3.0 5.0 -1 ------- null}
r -t 1.0571888 -s 1 -d 5 -p cbr -e 512 -c 0 -i 2 -a 0 -x {3.0 5.0 2 ------- null}
+ -t 1.06144 -s 3 -d 0 -p cbr -e 512 -c 0 -i 3 -a 0 -x {3.0 5.0 3 ------- null}
- -t 1.06144 -s 3 -d 0 -p cbr -e 512 -c 0 -i 3 -a 0 -x {3.0 5.0 3 ------- null}
h -t 1.06144 -s 3 -d 0 -p cbr -e 512 -c 0 -i 3 -a 0 -x {3.0 5.0 -1 ------- null}
r -t 1.0668496 -s 3 -d 0 -p cbr -e 512 -c 0 -i 3 -a 0 -x {3.0 5.0 3 ------- null}
+ -t 1.0668496 -s 0 -d 1 -p cbr -e 512 -c 0 -i 3 -a 0 -x {3.0 5.0 3 ------- null}
- -t 1.0668496 -s 0 -d 1 -p cbr -e 512 -c 0 -i 3 -a 0 -x {3.0 5.0 3 ------- null}
h -t 1.0668496 -s 0 -d 1 -p cbr -e 512 -c 0 -i 3 -a 0 -x {3.0 5.0 -1 ------- null}
r -t 1.0722592 -s 0 -d 1 -p cbr -e 512 -c 0 -i 3 -a 0 -x {3.0 5.0 3 ------- null}
+ -t 1.0722592 -s 1 -d 5 -p cbr -e 512 -c 0 -i 3 -a 0 -x {3.0 5.0 3 ------- null}
- -t 1.0722592 -s 1 -d 5 -p cbr -e 512 -c 0 -i 3 -a 0 -x {3.0 5.0 3 ------- null}
h -t 1.0722592 -s 1 -d 5 -p cbr -e 512 -c 0 -i 3 -a 0 -x {3.0 5.0 -1 ------- null}
r -t 1.0776688 -s 1 -d 5 -p cbr -e 512 -c 0 -i 3 -a 0 -x {3.0 5.0 3 ------- null}
+ -t 1.08192 -s 3 -d 0 -p cbr -e 512 -c 0 -i 4 -a 0 -x {3.0 5.0 4 ------- null}
- -t 1.08192 -s 3 -d 0 -p cbr -e 512 -c 0 -i 4 -a 0 -x {3.0 5.0 4 ------- null}
h -t 1.08192 -s 3 -d 0 -p cbr -e 512 -c 0 -i 4 -a 0 -x {3.0 5.0 -1 ------- null}
r -t 1.0873296 -s 3 -d 0 -p cbr -e 512 -c 0 -i 4 -a 0 -x {3.0 5.0 4 ------- null}
+ -t 1.0873296 -s 0 -d 1 -p cbr -e 512 -c 0 -i 4 -a 0 -x {3.0 5.0 4 ------- null}
- -t 1.0873296 -s 0 -d 1 -p cbr -e 512 -c 0 -i 4 -a 0 -x {3.0 5.0 4 ------- null}
h -t 1.0873296 -s 0 -d 1 -p cbr -e 512 -c 0 -i 4 -a 0 -x {3.0 5.0 -1 ------- null}
r -t 1.0927392 -s 0 -d 1 -p cbr -e 512 -c 0 -i 4 -a 0 -x {3.0 5.0 4 ------- null}
+ -t 1.0927392 -s 1 -d 5 -p cbr -e 512 -c 0 -i 4 -a 0 -x {3.0 5.0 4 ------- null}
- -t 1.0927392 -s 1 -d 5 -p cbr -e 512 -c 0 -i 4 -a 0 -x {3.0 5.0 4 ------- null}
h -t 1.0927392 -s 1 -d 5 -p cbr -e 512 -c 0 -i 4 -a 0 -x {3.0 5.0 -1 ------- null}
r -t 1.0981488 -s 1 -d 5 -p cbr -e 512 -c 0 -i 4 -a 0 -x {3.0 5.0 4 ------- null}
+ -t 1.1024 -s 3 -d 0 -p cbr -e 512 -c 0 -i 5 -a 0 -x {3.0 5.0 5 ------- null}
- -t 1.1024 -s 3 -d 0 -p cbr -e 512 -c 0 -i 5 -a 0 -x {3.0 5.0 5 ------- null}
h -t 1.1024 -s 3 -d 0 -p cbr -e 512 -c 0 -i 5 -a 0 -x {3.0 5.0 -1 ------- null}
r -t 1.1078096 -s 3 -d 0 -p cbr -e 512 -c 0 -i 5 -a 0 -x {3.0 5.0 5 ------- null}
+ -t 1.1078096 -s 0 -d 1 -p cbr -e 512 -c 0 -i 5 -a 0 -x {3.0 5.0 5 ------- null}
- -t 1.1078096 -s 0 -d 1 -p cbr -e 512 -c 0 -i 5 -a 0 -x {3.0 5.0 5 ------- null}
h -t 1.1078096 -s 0 -d 1 -p cbr -e 512 -c 0 -i 5 -a 0 -x {3.0 5.0 -1 ------- null}
r -t 1.1132192 -s 0 -d 1 -p cbr -e 512 -c 0 -i 5 -a 0 -x {3.0 5.0 5 ------- null}
+ -t 1.1132192 -s 1 -d 5 -p cbr -e 512 -c 0 -i 5 -a 0 -x {3.0 5.0 5 ------- null}
- -t 1.1132192 -s 1 -d 5 -p cbr -e 512 -c 0 -i 5 -a 0 -x {3.0 5.0 5 ------- null}
h -t 1.1132192 -s 1 -d 5 -p cbr -e 512 -c 0 -i 5 -a 0 -x {3.0 5.0 -1 ------- null}
r -t 1.1186288 -s 1 -d 5 -p cbr -e 512 -c 0 -i 5 -a 0 -x {3.0 5.0 5 ------- null}
+ -t 1.12288 -s 3 -d 0 -p cbr -e 512 -c 0 -i 6 -a 0 -x {3.0 5.0 6 ------- null}
- -t 1.12288 -s 3 -d 0 -p cbr -e 512 -c 0 -i 6 -a 0 -x {3.0 5.0 6 ------- null}
h -t 1.12288 -s 3 -d 0 -p cbr -e 512 -c 0 -i 6 -a 0 -x {3.0 5.0 -1 ------- null}
r -t 1.1282896 -s 3 -d 0 -p cbr -e 512 -c 0 -i 6 -a 0 -x {3.0 5.0 6 ------- null}
+ -t 1.1282896 -s 0 -d 1 -p cbr -e 512 -c 0 -i 6 -a 0 -x {3.0 5.0 6 ------- null}
- -t 1.1282896 -s 0 -d 1 -p cbr -e 512 -c 0 -i 6 -a 0 -x {3.0 5.0 6 ------- null}
h -t 1.1282896 -s 0 -d 1 -p cbr -e 512 -c 0 -i 6 -a 0 -x {3.0 5.0 -1 ------- null}
r -t 1.1336992 -s 0 -d 1 -p cbr -e 512 -c 0 -i 6 -a 0 -x {3.0 5.0 6 ------- null}
+ -t 1.1336992 -s 1 -d 5 -p cbr -e 512 -c 0 -i 6 -a 0 -x {3.0 5.0 6 ------- null}
- -t 1.1336992 -s 1 -d 5 -p cbr -e 512 -c 0 -i 6 -a 0 -x {3.0 5.0 6 ------- null}
h -t 1.1336992 -s 1 -d 5 -p cbr -e 512 -c 0 -i 6 -a 0 -x {3.0 5.0 -1 ------- null}
r -t 1.1391088 -s 1 -d 5 -p cbr -e 512 -c 0 -i 6 -a 0 -x {3.0 5.0 6 ------- null}
+ -t 1.14336 -s 3 -d 0 -p cbr -e 512 -c 0 -i 7 -a 0 -x {3.0 5.0 7 ------- null}
- -t 1.14336 -s 3 -d 0 -p cbr -e 512 -c 0 -i 7 -a 0 -x {3.0 5.0 7 ------- null}
h -t 1.14336 -s 3 -d 0 -p cbr -e 512 -c 0 -i 7 -a 0 -x {3.0 5.0 -1 ------- null}
r -t 1.1487696 -s 3 -d 0 -p cbr -e 512 -c 0 -i 7 -a 0 -x {3.0 5.0 7 ------- null}
+ -t 1.1487696 -s 0 -d 1 -p cbr -e 512 -c 0 -i 7 -a 0 -x {3.0 5.0 7 ------- null}
- -t 1.1487696 -s 0 -d 1 -p cbr -e 512 -c 0 -i 7 -a 0 -x {3.0 5.0 7 ------- null}
h -t 1.1487696 -s 0 -d 1 -p cbr -e 512 -c 0 -i 7 -a 0 -x {3.0 5.0 -1 ------- null}
r -t 1.1541792 -s 0 -d 1 -p cbr -e 512 -c 0 -i 7 -a 0 -x {3.0 5.0 7 ------- null}
+ -t 1.1541792 -s 1 -d 5 -p cbr -e 512 -c 0 -i 7 -a 0 -x {3.0 5.0 7 ------- null}
- -t 1.1541792 -s 1 -d 5 -p cbr -e 512 -c 0 -i 7 -a 0 -x {3.0 5.0 7 ------- null}
h -t 1.1541792 -s 1 -d 5 -p cbr -e 512 -c 0 -i 7 -a 0 -x {3.0 5.0 -1 ------- null}
r -t 1.1595888 -s 1 -d 5 -p cbr -e 512 -c 0 -i 7 -a 0 -x {3.0 5.0 7 ------- null}
+ -t 1.16384 -s 3 -d 0 -p cbr -e 512 -c 0 -i 8 -a 0 -x {3.0 5.0 8 ------- null}
- -t 1.16384 -s 3 -d 0 -p cbr -e 512 -c 0 -i 8 -a 0 -x {3.0 5.0 8 ------- null}
h -t 1.16384 -s 3 -d 0 -p cbr -e 512 -c 0 -i 8 -a 0 -x {3.0 5.0 -1 ------- null}
r -t 1.1692496 -s 3 -d 0 -p cbr -e 512 -c 0 -i 8 -a 0 -x {3.0 5.0 8 ------- null}
+ -t 1.1692496 -s 0 -d 1 -p cbr -e 512 -c 0 -i 8 -a 0 -x {3.0 5.0 8 ------- null}
- -t 1.1692496 -s 0 -d 1 -p cbr -e 512 -c 0 -i 8 -a 0 -x {3.0 5.0 8 ------- null}
h -t 1.1692496 -s 0 -d 1 -p cbr -e 512 -c 0 -i 8 -a 0 -x {3.0 5.0 -1 ------- null}
r -t 1.1746592 -s 0 -d 1 -p cbr -e 512 -c 0 -i 8 -a 0 -x {3.0 5.0 8 ------- null}
+ -t 1.1746592 -s 1 -d 5 -p cbr -e 512 -c 0 -i 8 -a 0 -x {3.0 5.0 8 ------- null}
- -t 1.1746592 -s 1 -d 5 -p cbr -e 512 -c 0 -i 8 -a 0 -x {3.0 5.0 8 ------- null}
h -t 1.1746592 -s 1 -d 5 -p cbr -e 512 -c 0 -i 8 -a 0 -x {3.0 5.0 -1 ------- null}
r -t 1.1800688 -s 1 -d 5 -p cbr -e 512 -c 0 -i 8 -a 0 -x {3.0 5.0 8 ------- null}
+ -t 1.18432 -s 3 -d 0 -p cbr -e 512 -c 0 -i 9 -a 0 -x {3.0 5.0 9 ------- null}
- -t 1.18432 -s 3 -d 0 -p cbr -e 512 -c 0 -i 9 -a 0 -x {3.0 5.0 9 ------- null}
h -t 1.18432 -s 3 -d 0 -p cbr -e 512 -c 0 -i 9 -a 0 -x {3.0 5.0 -1 ------- null}
r -t 1.1897296 -s 3 -d 0 -p cbr -e 512 -c 0 -i 9 -a 0 -x {3.0 5.0 9 ------- null}
+ -t 1.1897296 -s 0 -d 1 -p cbr -e 512 -c 0 -i 9 -a 0 -x {3.0 5.0 9 ------- null}
- -t 1.1897296 -s 0 -d 1 -p cbr -e 512 -c 0 -i 9 -a 0 -x {3.0 5.0 9 ------- null}
h -t 1.1897296 -s 0 -d 1 -p cbr -e 512 -c 0 -i 9 -a 0 -x {3.0 5.0 -1 ------- null}
r -t 1.1951392 -s 0 -d 1 -p cbr -e 512 -c 0 -i 9 -a 0 -x {3.0 5.0 9 ------- null}
+ -t 1.1951392 -s 1 -d 5 -p cbr -e 512 -c 0 -i 9 -a 0 -x {3.0 5.0 9 ------- null}
- -t 1.1951392 -s 1 -d 5 -p cbr -e 512 -c 0 -i 9 -a 0 -x {3.0 5.0 9 ------- null}
h -t 1.1951392 -s 1 -d 5 -p cbr -e 512 -c 0 -i 9 -a 0 -x {3.0 5.0 -1 ------- null}
r -t 1.2005488 -s 1 -d 5 -p cbr -e 512 -c 0 -i 9 -a 0 -x {3.0 5.0 9 ------- null}
+ -t 1.2048 -s 3 -d 0 -p cbr -e 512 -c 0 -i 10 -a 0 -x {3.0 5.0 10 ------- null}
- -t 1.2048 -s 3 -d 0 -p cbr -e 512 -c 0 -i 10 -a 0 -x {3.0 5.0 10 ------- null}
h -t 1.2048 -s 3 -d 0 -p cbr -e 512 -c 0 -i 10 -a 0 -x {3.0 5.0 -1 ------- null}
r -t 1.2102096 -s 3 -d 0 -p cbr -e 512 -c 0 -i 10 -a 0 -x {3.0 5.0 10 ------- null}
+ -t 1.2102096 -s 0 -d 1 -p cbr -e 512 -c 0 -i 10 -a 0 -x {3.0 5.0 10 ------- null}
- -t 1.2102096 -s 0 -d 1 -p cbr -e 512 -c 0 -i 10 -a 0 -x {3.0 5.0 10 ------- null}
h -t 1.2102096 -s 0 -d 1 -p cbr -e 512 -c 0 -i 10 -a 0 -x {3.0 5.0 -1 ------- null}
r -t 1.2156192 -s 0 -d 1 -p cbr -e 512 -c 0 -i 10 -a 0 -x {3.0 5.0 10 ------- null}
+ -t 1.2156192 -s 1 -d 5 -p cbr -e 512 -c 0 -i 10 -a 0 -x {3.0 5.0 10 ------- null}
- -t 1.2156192 -s 1 -d 5 -p cbr -e 512 -c 0 -i 10 -a 0 -x {3.0 5.0 10 ------- null}
h -t 1.2156192 -s 1 -d 5 -p cbr -e 512 -c 0 -i 10 -a 0 -x {3.0 5.0 -1 ------- null}
r -t 1.2210288 -s 1 -d 5 -p cbr -e 512 -c 0 -i 10 -a 0 -x {3.0 5.0 10 ------- null}
+ -t 1.22528 -s 3 -d 0 -p cbr -e 512 -c 0 -i 11 -a 0 -x {3.0 5.0 11 ------- null}
- -t 1.22528 -s 3 -d 0 -p cbr -e 512 -c 0 -i 11 -a 0 -x {3.0 5.0 11 ------- null}
h -t 1.22528 -s 3 -d 0 -p cbr -e 512 -c 0 -i 11 -a 0 -x {3.0 5.0 -1 ------- null}
r -t 1.2306896 -s 3 -d 0 -p cbr -e 512 -c 0 -i 11 -a 0 -x {3.0 5.0 11 ------- null}
+ -t 1.2306896 -s 0 -d 1 -p cbr -e 512 -c 0 -i 11 -a 0 -x {3.0 5.0 11 ------- null}
- -t 1.2306896 -s 0 -d 1 -p cbr -e 512 -c 0 -i 11 -a 0 -x {3.0 5.0 11 ------- null}
h -t 1.2306896 -s 0 -d 1 -p cbr -e 512 -c 0 -i 11 -a 0 -x {3.0 5.0 -1 ------- null}
r -t 1.2360992 -s 0 -d 1 -p cbr -e 512 -c 0 -i 11 -a 0 -x {3.0 5.0 11 ------- null}
+ -t 1.2360992 -s 1 -d 5 -p cbr -e 512 -c 0 -i 11 -a 0 -x {3.0 5.0 11 ------- null}
- -t 1.2360992 -s 1 -d 5 -p cbr -e 512 -c 0 -i 11 -a 0 -x {3.0 5.0 11 ------- null}
h -t 1.2360992 -s 1 -d 5 -p cbr -e 512 -c 0 -i 11 -a 0 -x {3.0 5.0 -1 ------- null}
r -t 1.2415088 -s 1 -d 5 -p cbr -e 512 -c 0 -i 11 -a 0 -x {3.0 5.0 11 ------- null}
+ -t 1.24576 -s 3 -d 0 -p cbr -e 512 -c 0 -i 12 -a 0 -x {3.0 5.0 12 ------- null}
- -t 1.24576 -s 3 -d 0 -p cbr -e 512 -c 0 -i 12 -a 0 -x {3.0 5.0 12 ------- null}
h -t 1.24576 -s 3 -d 0 -p cbr -e 512 -c 0 -i 12 -a 0 -x {3.0 5.0 -1 ------- null}
r -t 1.2511696 -s 3 -d 0 -p cbr -e 512 -c 0 -i 12 -a 0 -x {3.0 5.0 12 ------- null}
+ -t 1.2511696 -s 0 -d 1 -p cbr -e 512 -c 0 -i 12 -a 0 -x {3.0 5.0 12 ------- null}
- -t 1.2511696 -s 0 -d 1 -p cbr -e 512 -c 0 -i 12 -a 0 -x {3.0 5.0 12 ------- null}
h -t 1.2511696 -s 0 -d 1 -p cbr -e 512 -c 0 -i 12 -a 0 -x {3.0 5.0 -1 ------- null}
r -t 1.2565792 -s 0 -d 1 -p cbr -e 512 -c 0 -i 12 -a 0 -x {3.0 5.0 12 ------- null}
+ -t 1.2565792 -s 1 -d 5 -p cbr -e 512 -c 0 -i 12 -a 0 -x {3.0 5.0 12 ------- null}
- -t 1.2565792 -s 1 -d 5 -p cbr -e 512 -c 0 -i 12 -a 0 -x {3.0 5.0 12 ------- null}
h -t 1.2565792 -s 1 -d 5 -p cbr -e 512 -c 0 -i 12 -a 0 -x {3.0 5.0 -1 ------- null}
r -t 1.2619888 -s 1 -d 5 -p cbr -e 512 -c 0 -i 12 -a 0 -x {3.0 5.0 12 ------- null}
+ -t 1.26624 -s 3 -d 0 -p cbr -e 512 -c 0 -i 13 -a 0 -x {3.0 5.0 13 ------- null}
- -t 1.26624 -s 3 -d 0 -p cbr -e 512 -c 0 -i 13 -a 0 -x {3.0 5.0 13 ------- null}
h -t 1.26624 -s 3 -d 0 -p cbr -e 512 -c 0 -i 13 -a 0 -x {3.0 5.0 -1 ------- null}
r -t 1.2716496 -s 3 -d 0 -p cbr -e 512 -c 0 -i 13 -a 0 -x {3.0 5.0 13 ------- null}
+ -t 1.2716496 -s 0 -d 1 -p cbr -e 512 -c 0 -i 13 -a 0 -x {3.0 5.0 13 ------- null}
- -t 1.2716496 -s 0 -d 1 -p cbr -e 512 -c 0 -i 13 -a 0 -x {3.0 5.0 13 ------- null}
h -t 1.2716496 -s 0 -d 1 -p cbr -e 512 -c 0 -i 13 -a 0 -x {3.0 5.0 -1 ------- null}
r -t 1.2770592 -s 0 -d 1 -p cbr -e 512 -c 0 -i 13 -a 0 -x {3.0 5.0 13 ------- null}
+ -t 1.2770592 -s 1 -d 5 -p cbr -e 512 -c 0 -i 13 -a 0 -x {3.0 5.0 13 ------- null}
- -t 1.2770592 -s 1 -d 5 -p cbr -e 512 -c 0 -i 13 -a 0 -x {3.0 5.0 13 ------- null}
h -t 1.2770592 -s 1 -d 5 -p cbr -e 512 -c 0 -i 13 -a 0 -x {3.0 5.0 -1 ------- null}
r -t 1.2824688 -s 1 -d 5 -p cbr -e 512 -c 0 -i 13 -a 0 -x {3.0 5.0 13 ------- null}
+ -t 1.28672 -s 3 -d 0 -p cbr -e 512 -c 0 -i 14 -a 0 -x {3.0 5.0 14 ------- null}
- -t 1.28672 -s 3 -d 0 -p cbr -e 512 -c 0 -i 14 -a 0 -x {3.0 5.0 14 ------- null}
h -t 1.28672 -s 3 -d 0 -p cbr -e 512 -c 0 -i 14 -a 0 -x {3.0 5.0 -1 ------- null}
r -t 1.2921296 -s 3 -d 0 -p cbr -e 512 -c 0 -i 14 -a 0 -x {3.0 5.0 14 ------- null}
+ -t 1.2921296 -s 0 -d 1 -p cbr -e 512 -c 0 -i 14 -a 0 -x {3.0 5.0 14 ------- null}
- -t 1.2921296 -s 0 -d 1 -p cbr -e 512 -c 0 -i 14 -a 0 -x {3.0 5.0 14 ------- null}
h -t 1.2921296 -s 0 -d 1 -p cbr -e 512 -c 0 -i 14 -a 0 -x {3.0 5.0 -1 ------- null}
r -t 1.2975392 -s 0 -d 1 -p cbr -e 512 -c 0 -i 14 -a 0 -x {3.0 5.0 14 ------- null}
+ -t 1.2975392 -s 1 -d 5 -p cbr -e 512 -c 0 -i 14 -a 0 -x {3.0 5.0 14 ------- null}
- -t 1.2975392 -s 1 -d 5 -p cbr -e 512 -c 0 -i 14 -a 0 -x {3.0 5.0 14 ------- null}
h -t 1.2975392 -s 1 -d 5 -p cbr -e 512 -c 0 -i 14 -a 0 -x {3.0 5.0 -1 ------- null}
r -t 1.3029488 -s 1 -d 5 -p cbr -e 512 -c 0 -i 14 -a 0 -x {3.0 5.0 14 ------- null}
+ -t 1.3072 -s 3 -d 0 -p cbr -e 512 -c 0 -i 15 -a 0 -x {3.0 5.0 15 ------- null}
- -t 1.3072 -s 3 -d 0 -p cbr -e 512 -c 0 -i 15 -a 0 -x {3.0 5.0 15 ------- null}
h -t 1.3072 -s 3 -d 0 -p cbr -e 512 -c 0 -i 15 -a 0 -x {3.0 5.0 -1 ------- null}
r -t 1.3126096 -s 3 -d 0 -p cbr -e 512 -c 0 -i 15 -a 0 -x {3.0 5.0 15 ------- null}
+ -t 1.3126096 -s 0 -d 1 -p cbr -e 512 -c 0 -i 15 -a 0 -x {3.0 5.0 15 ------- null}
- -t 1.3126096 -s 0 -d 1 -p cbr -e 512 -c 0 -i 15 -a 0 -x {3.0 5.0 15 ------- null}
h -t 1.3126096 -s 0 -d 1 -p cbr -e 512 -c 0 -i 15 -a 0 -x {3.0 5.0 -1 ------- null}
r -t 1.3180192 -s 0 -d 1 -p cbr -e 512 -c 0 -i 15 -a 0 -x {3.0 5.0 15 ------- null}
+ -t 1.3180192 -s 1 -d 5 -p cbr -e 512 -c 0 -i 15 -a 0 -x {3.0 5.0 15 ------- null}
- -t 1.3180192 -s 1 -d 5 -p cbr -e 512 -c 0 -i 15 -a 0 -x {3.0 5.0 15 ------- null}
h -t 1.3180192 -s 1 -d 5 -p cbr -e 512 -c 0 -i 15 -a 0 -x {3.0 5.0 -1 ------- null}
r -t 1.3234288 -s 1 -d 5 -p cbr -e 512 -c 0 -i 15 -a 0 -x {3.0 5.0 15 ------- null}
+ -t 1.32768 -s 3 -d 0 -p cbr -e 512 -c 0 -i 16 -a 0 -x {3.0 5.0 16 ------- null}
- -t 1.32768 -s 3 -d 0 -p cbr -e 512 -c 0 -i 16 -a 0 -x {3.0 5.0 16 ------- null}
h -t 1.32768 -s 3 -d 0 -p cbr -e 512 -c 0 -i 16 -a 0 -x {3.0 5.0 -1 ------- null}
r -t 1.3330896 -s 3 -d 0 -p cbr -e 512 -c 0 -i 16 -a 0 -x {3.0 5.0 16 ------- null}
+ -t 1.3330896 -s 0 -d 1 -p cbr -e 512 -c 0 -i 16 -a 0 -x {3.0 5.0 16 ------- null}
- -t 1.3330896 -s 0 -d 1 -p cbr -e 512 -c 0 -i 16 -a 0 -x {3.0 5.0 16 ------- null}
h -t 1.3330896 -s 0 -d 1 -p cbr -e 512 -c 0 -i 16 -a 0 -x {3.0 5.0 -1 ------- null}
r -t 1.3384992 -s 0 -d 1 -p cbr -e 512 -c 0 -i 16 -a 0 -x {3.0 5.0 16 ------- null}
+ -t 1.3384992 -s 1 -d 5 -p cbr -e 512 -c 0 -i 16 -a 0 -x {3.0 5.0 16 ------- null}
- -t 1.3384992 -s 1 -d 5 -p cbr -e 512 -c 0 -i 16 -a 0 -x {3.0 5.0 16 ------- null}
h -t 1.3384992 -s 1 -d 5 -p cbr -e 512 -c 0 -i 16 -a 0 -x {3.0 5.0 -1 ------- null}
r -t 1.3439088 -s 1 -d 5 -p cbr -e 512 -c 0 -i 16 -a 0 -x {3.0 5.0 16 ------- null}
+ -t 1.34816 -s 3 -d 0 -p cbr -e 512 -c 0 -i 17 -a 0 -x {3.0 5.0 17 ------- null}
- -t 1.34816 -s 3 -d 0 -p cbr -e 512 -c 0 -i 17 -a 0 -x {3.0 5.0 17 ------- null}
h -t 1.34816 -s 3 -d 0 -p cbr -e 512 -c 0 -i 17 -a 0 -x {3.0 5.0 -1 ------- null}
r -t 1.3535696 -s 3 -d 0 -p cbr -e 512 -c 0 -i 17 -a 0 -x {3.0 5.0 17 ------- null}
+ -t 1.3535696 -s 0 -d 1 -p cbr -e 512 -c 0 -i 17 -a 0 -x {3.0 5.0 17 ------- null}
- -t 1.3535696 -s 0 -d 1 -p cbr -e 512 -c 0 -i 17 -a 0 -x {3.0 5.0 17 ------- null}
h -t 1.3535696 -s 0 -d 1 -p cbr -e 512 -c 0 -i 17 -a 0 -x {3.0 5.0 -1 ------- null}
r -t 1.3589792 -s 0 -d 1 -p cbr -e 512 -c 0 -i 17 -a 0 -x {3.0 5.0 17 ------- null}
+ -t 1.3589792 -s 1 -d 5 -p cbr -e 512 -c 0 -i 17 -a 0 -x {3.0 5.0 17 ------- null}
- -t 1.3589792 -s 1 -d 5 -p cbr -e 512 -c 0 -i 17 -a 0 -x {3.0 5.0 17 ------- null}
h -t 1.3589792 -s 1 -d 5 -p cbr -e 512 -c 0 -i 17 -a 0 -x {3.0 5.0 -1 ------- null}
r -t 1.3643888 -s 1 -d 5 -p cbr -e 512 -c 0 -i 17 -a 0 -x {3.0 5.0 17 ------- null}
+ -t 1.36864 -s 3 -d 0 -p cbr -e 512 -c 0 -i 18 -a 0 -x {3.0 5.0 18 ------- null}
- -t 1.36864 -s 3 -d 0 -p cbr -e 512 -c 0 -i 18 -a 0 -x {3.0 5.0 18 ------- null}
h -t 1.36864 -s 3 -d 0 -p cbr -e 512 -c 0 -i 18 -a 0 -x {3.0 5.0 -1 ------- null}
r -t 1.3740496 -s 3 -d 0 -p cbr -e 512 -c 0 -i 18 -a 0 -x {3.0 5.0 18 ------- null}
+ -t 1.3740496 -s 0 -d 1 -p cbr -e 512 -c 0 -i 18 -a 0 -x {3.0 5.0 18 ------- null}
- -t 1.3740496 -s 0 -d 1 -p cbr -e 512 -c 0 -i 18 -a 0 -x {3.0 5.0 18 ------- null}
h -t 1.3740496 -s 0 -d 1 -p cbr -e 512 -c 0 -i 18 -a 0 -x {3.0 5.0 -1 ------- null}
r -t 1.3794592 -s 0 -d 1 -p cbr -e 512 -c 0 -i 18 -a 0 -x {3.0 5.0 18 ------- null}
+ -t 1.3794592 -s 1 -d 5 -p cbr -e 512 -c 0 -i 18 -a 0 -x {3.0 5.0 18 ------- null}
- -t 1.3794592 -s 1 -d 5 -p cbr -e 512 -c 0 -i 18 -a 0 -x {3.0 5.0 18 ------- null}
h -t 1.3794592 -s 1 -d 5 -p cbr -e 512 -c 0 -i 18 -a 0 -x {3.0 5.0 -1 ------- null}
r -t 1.3848688 -s 1 -d 5 -p cbr -e 512 -c 0 -i 18 -a 0 -x {3.0 5.0 18 ------- null}
+ -t 1.38912 -s 3 -d 0 -p cbr -e 512 -c 0 -i 19 -a 0 -x {3.0 5.0 19 ------- null}
- -t 1.38912 -s 3 -d 0 -p cbr -e 512 -c 0 -i 19 -a 0 -x {3.0 5.0 19 ------- null}
h -t 1.38912 -s 3 -d 0 -p cbr -e 512 -c 0 -i 19 -a 0 -x {3.0 5.0 -1 ------- null}
r -t 1.3945296 -s 3 -d 0 -p cbr -e 512 -c 0 -i 19 -a 0 -x {3.0 5.0 19 ------- null}
+ -t 1.3945296 -s 0 -d 1 -p cbr -e 512 -c 0 -i 19 -a 0 -x {3.0 5.0 19 ------- null}
- -t 1.3945296 -s 0 -d 1 -p cbr -e 512 -c 0 -i 19 -a 0 -x {3.0 5.0 19 ------- null}
h -t 1.3945296 -s 0 -d 1 -p cbr -e 512 -c 0 -i 19 -a 0 -x {3.0 5.0 -1 ------- null}
r -t 1.3999392 -s 0 -d 1 -p cbr -e 512 -c 0 -i 19 -a 0 -x {3.0 5.0 19 ------- null}
+ -t 1.3999392 -s 1 -d 5 -p cbr -e 512 -c 0 -i 19 -a 0 -x {3.0 5.0 19 ------- null}
- -t 1.3999392 -s 1 -d 5 -p cbr -e 512 -c 0 -i 19 -a 0 -x {3.0 5.0 19 ------- null}
h -t 1.3999392 -s 1 -d 5 -p cbr -e 512 -c 0 -i 19 -a 0 -x {3.0 5.0 -1 ------- null}
r -t 1.4053488 -s 1 -d 5 -p cbr -e 512 -c 0 -i 19 -a 0 -x {3.0 5.0 19 ------- null}
+ -t 1.4096 -s 3 -d 0 -p cbr -e 512 -c 0 -i 20 -a 0 -x {3.0 5.0 20 ------- null}
- -t 1.4096 -s 3 -d 0 -p cbr -e 512 -c 0 -i 20 -a 0 -x {3.0 5.0 20 ------- null}
h -t 1.4096 -s 3 -d 0 -p cbr -e 512 -c 0 -i 20 -a 0 -x {3.0 5.0 -1 ------- null}
r -t 1.4150096 -s 3 -d 0 -p cbr -e 512 -c 0 -i 20 -a 0 -x {3.0 5.0 20 ------- null}
+ -t 1.4150096 -s 0 -d 1 -p cbr -e 512 -c 0 -i 20 -a 0 -x {3.0 5.0 20 ------- null}
- -t 1.4150096 -s 0 -d 1 -p cbr -e 512 -c 0 -i 20 -a 0 -x {3.0 5.0 20 ------- null}
h -t 1.4150096 -s 0 -d 1 -p cbr -e 512 -c 0 -i 20 -a 0 -x {3.0 5.0 -1 ------- null}
r -t 1.4204192 -s 0 -d 1 -p cbr -e 512 -c 0 -i 20 -a 0 -x {3.0 5.0 20 ------- null}
+ -t 1.4204192 -s 1 -d 5 -p cbr -e 512 -c 0 -i 20 -a 0 -x {3.0 5.0 20 ------- null}
- -t 1.4204192 -s 1 -d 5 -p cbr -e 512 -c 0 -i 20 -a 0 -x {3.0 5.0 20 ------- null}
h -t 1.4204192 -s 1 -d 5 -p cbr -e 512 -c 0 -i 20 -a 0 -x {3.0 5.0 -1 ------- null}
r -t 1.4258288 -s 1 -d 5 -p cbr -e 512 -c 0 -i 20 -a 0 -x {3.0 5.0 20 ------- null}
+ -t 1.43008 -s 3 -d 0 -p cbr -e 512 -c 0 -i 21 -a 0 -x {3.0 5.0 21 ------- null}
- -t 1.43008 -s 3 -d 0 -p cbr -e 512 -c 0 -i 21 -a 0 -x {3.0 5.0 21 ------- null}
h -t 1.43008 -s 3 -d 0 -p cbr -e 512 -c 0 -i 21 -a 0 -x {3.0 5.0 -1 ------- null}
r -t 1.4354896 -s 3 -d 0 -p cbr -e 512 -c 0 -i 21 -a 0 -x {3.0 5.0 21 ------- null}
+ -t 1.4354896 -s 0 -d 1 -p cbr -e 512 -c 0 -i 21 -a 0 -x {3.0 5.0 21 ------- null}
- -t 1.4354896 -s 0 -d 1 -p cbr -e 512 -c 0 -i 21 -a 0 -x {3.0 5.0 21 ------- null}
h -t 1.4354896 -s 0 -d 1 -p cbr -e 512 -c 0 -i 21 -a 0 -x {3.0 5.0 -1 ------- null}
r -t 1.4408992 -s 0 -d 1 -p cbr -e 512 -c 0 -i 21 -a 0 -x {3.0 5.0 21 ------- null}
+ -t 1.4408992 -s 1 -d 5 -p cbr -e 512 -c 0 -i 21 -a 0 -x {3.0 5.0 21 ------- null}
- -t 1.4408992 -s 1 -d 5 -p cbr -e 512 -c 0 -i 21 -a 0 -x {3.0 5.0 21 ------- null}
h -t 1.4408992 -s 1 -d 5 -p cbr -e 512 -c 0 -i 21 -a 0 -x {3.0 5.0 -1 ------- null}
r -t 1.4463088 -s 1 -d 5 -p cbr -e 512 -c 0 -i 21 -a 0 -x {3.0 5.0 21 ------- null}
+ -t 1.45056 -s 3 -d 0 -p cbr -e 512 -c 0 -i 22 -a 0 -x {3.0 5.0 22 ------- null}
- -t 1.45056 -s 3 -d 0 -p cbr -e 512 -c 0 -i 22 -a 0 -x {3.0 5.0 22 ------- null}
h -t 1.45056 -s 3 -d 0 -p cbr -e 512 -c 0 -i 22 -a 0 -x {3.0 5.0 -1 ------- null}
r -t 1.4559696 -s 3 -d 0 -p cbr -e 512 -c 0 -i 22 -a 0 -x {3.0 5.0 22 ------- null}
+ -t 1.4559696 -s 0 -d 1 -p cbr -e 512 -c 0 -i 22 -a 0 -x {3.0 5.0 22 ------- null}
- -t 1.4559696 -s 0 -d 1 -p cbr -e 512 -c 0 -i 22 -a 0 -x {3.0 5.0 22 ------- null}
h -t 1.4559696 -s 0 -d 1 -p cbr -e 512 -c 0 -i 22 -a 0 -x {3.0 5.0 -1 ------- null}
r -t 1.4613792 -s 0 -d 1 -p cbr -e 512 -c 0 -i 22 -a 0 -x {3.0 5.0 22 ------- null}
+ -t 1.4613792 -s 1 -d 5 -p cbr -e 512 -c 0 -i 22 -a 0 -x {3.0 5.0 22 ------- null}
- -t 1.4613792 -s 1 -d 5 -p cbr -e 512 -c 0 -i 22 -a 0 -x {3.0 5.0 22 ------- null}
h -t 1.4613792 -s 1 -d 5 -p cbr -e 512 -c 0 -i 22 -a 0 -x {3.0 5.0 -1 ------- null}
r -t 1.4667888 -s 1 -d 5 -p cbr -e 512 -c 0 -i 22 -a 0 -x {3.0 5.0 22 ------- null}
+ -t 1.47104 -s 3 -d 0 -p cbr -e 512 -c 0 -i 23 -a 0 -x {3.0 5.0 23 ------- null}
- -t 1.47104 -s 3 -d 0 -p cbr -e 512 -c 0 -i 23 -a 0 -x {3.0 5.0 23 ------- null}
h -t 1.47104 -s 3 -d 0 -p cbr -e 512 -c 0 -i 23 -a 0 -x {3.0 5.0 -1 ------- null}
r -t 1.4764496 -s 3 -d 0 -p cbr -e 512 -c 0 -i 23 -a 0 -x {3.0 5.0 23 ------- null}
+ -t 1.4764496 -s 0 -d 1 -p cbr -e 512 -c 0 -i 23 -a 0 -x {3.0 5.0 23 ------- null}
- -t 1.4764496 -s 0 -d 1 -p cbr -e 512 -c 0 -i 23 -a 0 -x {3.0 5.0 23 ------- null}
h -t 1.4764496 -s 0 -d 1 -p cbr -e 512 -c 0 -i 23 -a 0 -x {3.0 5.0 -1 ------- null}
r -t 1.4818592 -s 0 -d 1 -p cbr -e 512 -c 0 -i 23 -a 0 -x {3.0 5.0 23 ------- null}
+ -t 1.4818592 -s 1 -d 5 -p cbr -e 512 -c 0 -i 23 -a 0 -x {3.0 5.0 23 ------- null}
- -t 1.4818592 -s 1 -d 5 -p cbr -e 512 -c 0 -i 23 -a 0 -x {3.0 5.0 23 ------- null}
h -t 1.4818592 -s 1 -d 5 -p cbr -e 512 -c 0 -i 23 -a 0 -x {3.0 5.0 -1 ------- null}
r -t 1.4872688 -s 1 -d 5 -p cbr -e 512 -c 0 -i 23 -a 0 -x {3.0 5.0 23 ------- null}
+ -t 1.49152 -s 3 -d 0 -p cbr -e 512 -c 0 -i 24 -a 0 -x {3.0 5.0 24 ------- null}
- -t 1.49152 -s 3 -d 0 -p cbr -e 512 -c 0 -i 24 -a 0 -x {3.0 5.0 24 ------- null}
h -t 1.49152 -s 3 -d 0 -p cbr -e 512 -c 0 -i 24 -a 0 -x {3.0 5.0 -1 ------- null}
r -t 1.4969296 -s 3 -d 0 -p cbr -e 512 -c 0 -i 24 -a 0 -x {3.0 5.0 24 ------- null}
+ -t 1.4969296 -s 0 -d 1 -p cbr -e 512 -c 0 -i 24 -a 0 -x {3.0 5.0 24 ------- null}
- -t 1.4969296 -s 0 -d 1 -p cbr -e 512 -c 0 -i 24 -a 0 -x {3.0 5.0 24 ------- null}
h -t 1.4969296 -s 0 -d 1 -p cbr -e 512 -c 0 -i 24 -a 0 -x {3.0 5.0 -1 ------- null}
r -t 1.5023392 -s 0 -d 1 -p cbr -e 512 -c 0 -i 24 -a 0 -x {3.0 5.0 24 ------- null}
+ -t 1.5023392 -s 1 -d 5 -p cbr -e 512 -c 0 -i 24 -a 0 -x {3.0 5.0 24 ------- null}
- -t 1.5023392 -s 1 -d 5 -p cbr -e 512 -c 0 -i 24 -a 0 -x {3.0 5.0 24 ------- null}
h -t 1.5023392 -s 1 -d 5 -p cbr -e 512 -c 0 -i 24 -a 0 -x {3.0 5.0 -1 ------- null}
r -t 1.5077488 -s 1 -d 5 -p cbr -e 512 -c 0 -i 24 -a 0 -x {3.0 5.0 24 ------- null}
+ -t 1.512 -s 3 -d 0 -p cbr -e 512 -c 0 -i 25 -a 0 -x {3.0 5.0 25 ------- null}
- -t 1.512 -s 3 -d 0 -p cbr -e 512 -c 0 -i 25 -a 0 -x {3.0 5.0 25 ------- null}
h -t 1.512 -s 3 -d 0 -p cbr -e 512 -c 0 -i 25 -a 0 -x {3.0 5.0 -1 ------- null}
r -t 1.5174096 -s 3 -d 0 -p cbr -e 512 -c 0 -i 25 -a 0 -x {3.0 5.0 25 ------- null}
+ -t 1.5174096 -s 0 -d 1 -p cbr -e 512 -c 0 -i 25 -a 0 -x {3.0 5.0 25 ------- null}
- -t 1.5174096 -s 0 -d 1 -p cbr -e 512 -c 0 -i 25 -a 0 -x {3.0 5.0 25 ------- null}
h -t 1.5174096 -s 0 -d 1 -p cbr -e 512 -c 0 -i 25 -a 0 -x {3.0 5.0 -1 ------- null}
r -t 1.5228192 -s 0 -d 1 -p cbr -e 512 -c 0 -i 25 -a 0 -x {3.0 5.0 25 ------- null}
+ -t 1.5228192 -s 1 -d 5 -p cbr -e 512 -c 0 -i 25 -a 0 -x {3.0 5.0 25 ------- null}
- -t 1.5228192 -s 1 -d 5 -p cbr -e 512 -c 0 -i 25 -a 0 -x {3.0 5.0 25 ------- null}
h -t 1.5228192 -s 1 -d 5 -p cbr -e 512 -c 0 -i 25 -a 0 -x {3.0 5.0 -1 ------- null}
r -t 1.5282288 -s 1 -d 5 -p cbr -e 512 -c 0 -i 25 -a 0 -x {3.0 5.0 25 ------- null}
+ -t 1.53248 -s 3 -d 0 -p cbr -e 512 -c 0 -i 26 -a 0 -x {3.0 5.0 26 ------- null}
- -t 1.53248 -s 3 -d 0 -p cbr -e 512 -c 0 -i 26 -a 0 -x {3.0 5.0 26 ------- null}
h -t 1.53248 -s 3 -d 0 -p cbr -e 512 -c 0 -i 26 -a 0 -x {3.0 5.0 -1 ------- null}
r -t 1.5378896 -s 3 -d 0 -p cbr -e 512 -c 0 -i 26 -a 0 -x {3.0 5.0 26 ------- null}
+ -t 1.5378896 -s 0 -d 1 -p cbr -e 512 -c 0 -i 26 -a 0 -x {3.0 5.0 26 ------- null}
- -t 1.5378896 -s 0 -d 1 -p cbr -e 512 -c 0 -i 26 -a 0 -x {3.0 5.0 26 ------- null}
h -t 1.5378896 -s 0 -d 1 -p cbr -e 512 -c 0 -i 26 -a 0 -x {3.0 5.0 -1 ------- null}
r -t 1.5432992 -s 0 -d 1 -p cbr -e 512 -c 0 -i 26 -a 0 -x {3.0 5.0 26 ------- null}
+ -t 1.5432992 -s 1 -d 5 -p cbr -e 512 -c 0 -i 26 -a 0 -x {3.0 5.0 26 ------- null}
- -t 1.5432992 -s 1 -d 5 -p cbr -e 512 -c 0 -i 26 -a 0 -x {3.0 5.0 26 ------- null}
h -t 1.5432992 -s 1 -d 5 -p cbr -e 512 -c 0 -i 26 -a 0 -x {3.0 5.0 -1 ------- null}
r -t 1.5487088 -s 1 -d 5 -p cbr -e 512 -c 0 -i 26 -a 0 -x {3.0 5.0 26 ------- null}
+ -t 1.55296 -s 3 -d 0 -p cbr -e 512 -c 0 -i 27 -a 0 -x {3.0 5.0 27 ------- null}
- -t 1.55296 -s 3 -d 0 -p cbr -e 512 -c 0 -i 27 -a 0 -x {3.0 5.0 27 ------- null}
h -t 1.55296 -s 3 -d 0 -p cbr -e 512 -c 0 -i 27 -a 0 -x {3.0 5.0 -1 ------- null}
r -t 1.5583696 -s 3 -d 0 -p cbr -e 512 -c 0 -i 27 -a 0 -x {3.0 5.0 27 ------- null}
+ -t 1.5583696 -s 0 -d 1 -p cbr -e 512 -c 0 -i 27 -a 0 -x {3.0 5.0 27 ------- null}
- -t 1.5583696 -s 0 -d 1 -p cbr -e 512 -c 0 -i 27 -a 0 -x {3.0 5.0 27 ------- null}
h -t 1.5583696 -s 0 -d 1 -p cbr -e 512 -c 0 -i 27 -a 0 -x {3.0 5.0 -1 ------- null}
r -t 1.5637792 -s 0 -d 1 -p cbr -e 512 -c 0 -i 27 -a 0 -x {3.0 5.0 27 ------- null}
+ -t 1.5637792 -s 1 -d 5 -p cbr -e 512 -c 0 -i 27 -a 0 -x {3.0 5.0 27 ------- null}
- -t 1.5637792 -s 1 -d 5 -p cbr -e 512 -c 0 -i 27 -a 0 -x {3.0 5.0 27 ------- null}
h -t 1.5637792 -s 1 -d 5 -p cbr -e 512 -c 0 -i 27 -a 0 -x {3.0 5.0 -1 ------- null}
r -t 1.5691888 -s 1 -d 5 -p cbr -e 512 -c 0 -i 27 -a 0 -x {3.0 5.0 27 ------- null}
+ -t 1.57344 -s 3 -d 0 -p cbr -e 512 -c 0 -i 28 -a 0 -x {3.0 5.0 28 ------- null}
- -t 1.57344 -s 3 -d 0 -p cbr -e 512 -c 0 -i 28 -a 0 -x {3.0 5.0 28 ------- null}
h -t 1.57344 -s 3 -d 0 -p cbr -e 512 -c 0 -i 28 -a 0 -x {3.0 5.0 -1 ------- null}
r -t 1.5788496 -s 3 -d 0 -p cbr -e 512 -c 0 -i 28 -a 0 -x {3.0 5.0 28 ------- null}
+ -t 1.5788496 -s 0 -d 1 -p cbr -e 512 -c 0 -i 28 -a 0 -x {3.0 5.0 28 ------- null}
- -t 1.5788496 -s 0 -d 1 -p cbr -e 512 -c 0 -i 28 -a 0 -x {3.0 5.0 28 ------- null}
h -t 1.5788496 -s 0 -d 1 -p cbr -e 512 -c 0 -i 28 -a 0 -x {3.0 5.0 -1 ------- null}
r -t 1.5842592 -s 0 -d 1 -p cbr -e 512 -c 0 -i 28 -a 0 -x {3.0 5.0 28 ------- null}
+ -t 1.5842592 -s 1 -d 5 -p cbr -e 512 -c 0 -i 28 -a 0 -x {3.0 5.0 28 ------- null}
- -t 1.5842592 -s 1 -d 5 -p cbr -e 512 -c 0 -i 28 -a 0 -x {3.0 5.0 28 ------- null}
h -t 1.5842592 -s 1 -d 5 -p cbr -e 512 -c 0 -i 28 -a 0 -x {3.0 5.0 -1 ------- null}
r -t 1.5896688 -s 1 -d 5 -p cbr -e 512 -c 0 -i 28 -a 0 -x {3.0 5.0 28 ------- null}
+ -t 1.59392 -s 3 -d 0 -p cbr -e 512 -c 0 -i 29 -a 0 -x {3.0 5.0 29 ------- null}
- -t 1.59392 -s 3 -d 0 -p cbr -e 512 -c 0 -i 29 -a 0 -x {3.0 5.0 29 ------- null}
h -t 1.59392 -s 3 -d 0 -p cbr -e 512 -c 0 -i 29 -a 0 -x {3.0 5.0 -1 ------- null}
r -t 1.5993296 -s 3 -d 0 -p cbr -e 512 -c 0 -i 29 -a 0 -x {3.0 5.0 29 ------- null}